V -t * -v 1.0a5 -a 0
A -t * -n 1 -p 0 -o 0x7fffffff -c 30 -a 1
A -t * -h 1 -m 1073741823 -s 0
c -t * -i 1 -n Blue
c -t * -i 2 -n Red
n -t * -a 4 -s 4 -S UP -v circle -c black -i black
n -t * -a 0 -s 0 -S UP -v circle -c black -i black
n -t * -a 1 -s 1 -S UP -v circle -c black -i black
n -t * -a 2 -s 2 -S UP -v circle -c black -i black
n -t * -a 3 -s 3 -S UP -v circle -c black -i black
l -t * -s 1 -d 0 -S UP -r 3000000 -D 0.01 -c black -o left-up
l -t * -s 2 -d 0 -S UP -r 3000000 -D 0.01 -c black -o left-down
l -t * -s 3 -d 0 -S UP -r 3000000 -D 0.01 -c black -o right-up
l -t * -s 4 -d 0 -S UP -r 3000000 -D 0.01 -c black -o right-down
+ -t 0.1 -s 2 -d 0 -p cbr -e 1000 -c 2 -i 0 -a 2 -x {2.0 3.0 0 ------- null}
- -t 0.1 -s 2 -d 0 -p cbr -e 1000 -c 2 -i 0 -a 2 -x {2.0 3.0 0 ------- null}
h -t 0.1 -s 2 -d 0 -p cbr -e 1000 -c 2 -i 0 -a 2 -x {2.0 3.0 -1 ------- null}
+ -t 0.108 -s 2 -d 0 -p cbr -e 1000 -c 2 -i 1 -a 2 -x {2.0 3.0 1 ------- null}
- -t 0.108 -s 2 -d 0 -p cbr -e 1000 -c 2 -i 1 -a 2 -x {2.0 3.0 1 ------- null}
h -t 0.108 -s 2 -d 0 -p cbr -e 1000 -c 2 -i 1 -a 2 -x {2.0 3.0 -1 ------- null}
r -t 0.112666666666667 -s 2 -d 0 -p cbr -e 1000 -c 2 -i 0 -a 2 -x {2.0 3.0 0 ------- null}
+ -t 0.112666666666667 -s 0 -d 3 -p cbr -e 1000 -c 2 -i 0 -a 2 -x {2.0 3.0 0 ------- null}
- -t 0.112666666666667 -s 0 -d 3 -p cbr -e 1000 -c 2 -i 0 -a 2 -x {2.0 3.0 0 ------- null}
h -t 0.112666666666667 -s 0 -d 3 -p cbr -e 1000 -c 2 -i 0 -a 2 -x {2.0 3.0 -1 ------- null}
+ -t 0.116 -s 2 -d 0 -p cbr -e 1000 -c 2 -i 2 -a 2 -x {2.0 3.0 2 ------- null}
- -t 0.116 -s 2 -d 0 -p cbr -e 1000 -c 2 -i 2 -a 2 -x {2.0 3.0 2 ------- null}
h -t 0.116 -s 2 -d 0 -p cbr -e 1000 -c 2 -i 2 -a 2 -x {2.0 3.0 -1 ------- null}
r -t 0.120666666666667 -s 2 -d 0 -p cbr -e 1000 -c 2 -i 1 -a 2 -x {2.0 3.0 1 ------- null}
+ -t 0.120666666666667 -s 0 -d 3 -p cbr -e 1000 -c 2 -i 1 -a 2 -x {2.0 3.0 1 ------- null}
- -t 0.120666666666667 -s 0 -d 3 -p cbr -e 1000 -c 2 -i 1 -a 2 -x {2.0 3.0 1 ------- null}
h -t 0.120666666666667 -s 0 -d 3 -p cbr -e 1000 -c 2 -i 1 -a 2 -x {2.0 3.0 -1 ------- null}
+ -t 0.124 -s 2 -d 0 -p cbr -e 1000 -c 2 -i 3 -a 2 -x {2.0 3.0 3 ------- null}
- -t 0.124 -s 2 -d 0 -p cbr -e 1000 -c 2 -i 3 -a 2 -x {2.0 3.0 3 ------- null}
h -t 0.124 -s 2 -d 0 -p cbr -e 1000 -c 2 -i 3 -a 2 -x {2.0 3.0 -1 ------- null}
r -t 0.125333333333333 -s 0 -d 3 -p cbr -e 1000 -c 2 -i 0 -a 2 -x {2.0 3.0 0 ------- null}
r -t 0.128666666666667 -s 2 -d 0 -p cbr -e 1000 -c 2 -i 2 -a 2 -x {2.0 3.0 2 ------- null}
+ -t 0.128666666666667 -s 0 -d 3 -p cbr -e 1000 -c 2 -i 2 -a 2 -x {2.0 3.0 2 ------- null}
- -t 0.128666666666667 -s 0 -d 3 -p cbr -e 1000 -c 2 -i 2 -a 2 -x {2.0 3.0 2 ------- null}
h -t 0.128666666666667 -s 0 -d 3 -p cbr -e 1000 -c 2 -i 2 -a 2 -x {2.0 3.0 -1 ------- null}
+ -t 0.132 -s 2 -d 0 -p cbr -e 1000 -c 2 -i 4 -a 2 -x {2.0 3.0 4 ------- null}
- -t 0.132 -s 2 -d 0 -p cbr -e 1000 -c 2 -i 4 -a 2 -x {2.0 3.0 4 ------- null}
h -t 0.132 -s 2 -d 0 -p cbr -e 1000 -c 2 -i 4 -a 2 -x {2.0 3.0 -1 ------- null}
r -t 0.133333333333333 -s 0 -d 3 -p cbr -e 1000 -c 2 -i 1 -a 2 -x {2.0 3.0 1 ------- null}
r -t 0.136666666666667 -s 2 -d 0 -p cbr -e 1000 -c 2 -i 3 -a 2 -x {2.0 3.0 3 ------- null}
+ -t 0.136666666666667 -s 0 -d 3 -p cbr -e 1000 -c 2 -i 3 -a 2 -x {2.0 3.0 3 ------- null}
- -t 0.136666666666667 -s 0 -d 3 -p cbr -e 1000 -c 2 -i 3 -a 2 -x {2.0 3.0 3 ------- null}
h -t 0.136666666666667 -s 0 -d 3 -p cbr -e 1000 -c 2 -i 3 -a 2 -x {2.0 3.0 -1 ------- null}
+ -t 0.14 -s 2 -d 0 -p cbr -e 1000 -c 2 -i 5 -a 2 -x {2.0 3.0 5 ------- null}
- -t 0.14 -s 2 -d 0 -p cbr -e 1000 -c 2 -i 5 -a 2 -x {2.0 3.0 5 ------- null}
h -t 0.14 -s 2 -d 0 -p cbr -e 1000 -c 2 -i 5 -a 2 -x {2.0 3.0 -1 ------- null}
r -t 0.141333333333333 -s 0 -d 3 -p cbr -e 1000 -c 2 -i 2 -a 2 -x {2.0 3.0 2 ------- null}
r -t 0.144666666666667 -s 2 -d 0 -p cbr -e 1000 -c 2 -i 4 -a 2 -x {2.0 3.0 4 ------- null}
+ -t 0.144666666666667 -s 0 -d 3 -p cbr -e 1000 -c 2 -i 4 -a 2 -x {2.0 3.0 4 ------- null}
- -t 0.144666666666667 -s 0 -d 3 -p cbr -e 1000 -c 2 -i 4 -a 2 -x {2.0 3.0 4 ------- null}
h -t 0.144666666666667 -s 0 -d 3 -p cbr -e 1000 -c 2 -i 4 -a 2 -x {2.0 3.0 -1 ------- null}
+ -t 0.148 -s 2 -d 0 -p cbr -e 1000 -c 2 -i 6 -a 2 -x {2.0 3.0 6 ------- null}
- -t 0.148 -s 2 -d 0 -p cbr -e 1000 -c 2 -i 6 -a 2 -x {2.0 3.0 6 ------- null}
h -t 0.148 -s 2 -d 0 -p cbr -e 1000 -c 2 -i 6 -a 2 -x {2.0 3.0 -1 ------- null}
r -t 0.149333333333333 -s 0 -d 3 -p cbr -e 1000 -c 2 -i 3 -a 2 -x {2.0 3.0 3 ------- null}
r -t 0.152666666666667 -s 2 -d 0 -p cbr -e 1000 -c 2 -i 5 -a 2 -x {2.0 3.0 5 ------- null}
+ -t 0.152666666666667 -s 0 -d 3 -p cbr -e 1000 -c 2 -i 5 -a 2 -x {2.0 3.0 5 ------- null}
- -t 0.152666666666667 -s 0 -d 3 -p cbr -e 1000 -c 2 -i 5 -a 2 -x {2.0 3.0 5 ------- null}
h -t 0.152666666666667 -s 0 -d 3 -p cbr -e 1000 -c 2 -i 5 -a 2 -x {2.0 3.0 -1 ------- null}
+ -t 0.156 -s 2 -d 0 -p cbr -e 1000 -c 2 -i 7 -a 2 -x {2.0 3.0 7 ------- null}
- -t 0.156 -s 2 -d 0 -p cbr -e 1000 -c 2 -i 7 -a 2 -x {2.0 3.0 7 ------- null}
h -t 0.156 -s 2 -d 0 -p cbr -e 1000 -c 2 -i 7 -a 2 -x {2.0 3.0 -1 ------- null}
r -t 0.157333333333333 -s 0 -d 3 -p cbr -e 1000 -c 2 -i 4 -a 2 -x {2.0 3.0 4 ------- null}
r -t 0.160666666666667 -s 2 -d 0 -p cbr -e 1000 -c 2 -i 6 -a 2 -x {2.0 3.0 6 ------- null}
+ -t 0.160666666666667 -s 0 -d 3 -p cbr -e 1000 -c 2 -i 6 -a 2 -x {2.0 3.0 6 ------- null}
- -t 0.160666666666667 -s 0 -d 3 -p cbr -e 1000 -c 2 -i 6 -a 2 -x {2.0 3.0 6 ------- null}
h -t 0.160666666666667 -s 0 -d 3 -p cbr -e 1000 -c 2 -i 6 -a 2 -x {2.0 3.0 -1 ------- null}
+ -t 0.164 -s 2 -d 0 -p cbr -e 1000 -c 2 -i 8 -a 2 -x {2.0 3.0 8 ------- null}
- -t 0.164 -s 2 -d 0 -p cbr -e 1000 -c 2 -i 8 -a 2 -x {2.0 3.0 8 ------- null}
h -t 0.164 -s 2 -d 0 -p cbr -e 1000 -c 2 -i 8 -a 2 -x {2.0 3.0 -1 ------- null}
r -t 0.165333333333333 -s 0 -d 3 -p cbr -e 1000 -c 2 -i 5 -a 2 -x {2.0 3.0 5 ------- null}
r -t 0.168666666666667 -s 2 -d 0 -p cbr -e 1000 -c 2 -i 7 -a 2 -x {2.0 3.0 7 ------- null}
+ -t 0.168666666666667 -s 0 -d 3 -p cbr -e 1000 -c 2 -i 7 -a 2 -x {2.0 3.0 7 ------- null}
- -t 0.168666666666667 -s 0 -d 3 -p cbr -e 1000 -c 2 -i 7 -a 2 -x {2.0 3.0 7 ------- null}
h -t 0.168666666666667 -s 0 -d 3 -p cbr -e 1000 -c 2 -i 7 -a 2 -x {2.0 3.0 -1 ------- null}
+ -t 0.172 -s 2 -d 0 -p cbr -e 1000 -c 2 -i 9 -a 2 -x {2.0 3.0 9 ------- null}
- -t 0.172 -s 2 -d 0 -p cbr -e 1000 -c 2 -i 9 -a 2 -x {2.0 3.0 9 ------- null}
h -t 0.172 -s 2 -d 0 -p cbr -e 1000 -c 2 -i 9 -a 2 -x {2.0 3.0 -1 ------- null}
r -t 0.173333333333333 -s 0 -d 3 -p cbr -e 1000 -c 2 -i 6 -a 2 -x {2.0 3.0 6 ------- null}
r -t 0.176666666666667 -s 2 -d 0 -p cbr -e 1000 -c 2 -i 8 -a 2 -x {2.0 3.0 8 ------- null}
+ -t 0.176666666666667 -s 0 -d 3 -p cbr -e 1000 -c 2 -i 8 -a 2 -x {2.0 3.0 8 ------- null}
- -t 0.176666666666667 -s 0 -d 3 -p cbr -e 1000 -c 2 -i 8 -a 2 -x {2.0 3.0 8 ------- null}
h -t 0.176666666666667 -s 0 -d 3 -p cbr -e 1000 -c 2 -i 8 -a 2 -x {2.0 3.0 -1 ------- null}
+ -t 0.18 -s 2 -d 0 -p cbr -e 1000 -c 2 -i 10 -a 2 -x {2.0 3.0 10 ------- null}
- -t 0.18 -s 2 -d 0 -p cbr -e 1000 -c 2 -i 10 -a 2 -x {2.0 3.0 10 ------- null}
h -t 0.18 -s 2 -d 0 -p cbr -e 1000 -c 2 -i 10 -a 2 -x {2.0 3.0 -1 ------- null}
r -t 0.181333333333333 -s 0 -d 3 -p cbr -e 1000 -c 2 -i 7 -a 2 -x {2.0 3.0 7 ------- null}
r -t 0.184666666666667 -s 2 -d 0 -p cbr -e 1000 -c 2 -i 9 -a 2 -x {2.0 3.0 9 ------- null}
+ -t 0.184666666666667 -s 0 -d 3 -p cbr -e 1000 -c 2 -i 9 -a 2 -x {2.0 3.0 9 ------- null}
- -t 0.184666666666667 -s 0 -d 3 -p cbr -e 1000 -c 2 -i 9 -a 2 -x {2.0 3.0 9 ------- null}
h -t 0.184666666666667 -s 0 -d 3 -p cbr -e 1000 -c 2 -i 9 -a 2 -x {2.0 3.0 -1 ------- null}
+ -t 0.188 -s 2 -d 0 -p cbr -e 1000 -c 2 -i 11 -a 2 -x {2.0 3.0 11 ------- null}
- -t 0.188 -s 2 -d 0 -p cbr -e 1000 -c 2 -i 11 -a 2 -x {2.0 3.0 11 ------- null}
h -t 0.188 -s 2 -d 0 -p cbr -e 1000 -c 2 -i 11 -a 2 -x {2.0 3.0 -1 ------- null}
r -t 0.189333333333333 -s 0 -d 3 -p cbr -e 1000 -c 2 -i 8 -a 2 -x {2.0 3.0 8 ------- null}
r -t 0.192666666666667 -s 2 -d 0 -p cbr -e 1000 -c 2 -i 10 -a 2 -x {2.0 3.0 10 ------- null}
+ -t 0.192666666666667 -s 0 -d 3 -p cbr -e 1000 -c 2 -i 10 -a 2 -x {2.0 3.0 10 ------- null}
- -t 0.192666666666667 -s 0 -d 3 -p cbr -e 1000 -c 2 -i 10 -a 2 -x {2.0 3.0 10 ------- null}
h -t 0.192666666666667 -s 0 -d 3 -p cbr -e 1000 -c 2 -i 10 -a 2 -x {2.0 3.0 -1 ------- null}
+ -t 0.196 -s 2 -d 0 -p cbr -e 1000 -c 2 -i 12 -a 2 -x {2.0 3.0 12 ------- null}
- -t 0.196 -s 2 -d 0 -p cbr -e 1000 -c 2 -i 12 -a 2 -x {2.0 3.0 12 ------- null}
h -t 0.196 -s 2 -d 0 -p cbr -e 1000 -c 2 -i 12 -a 2 -x {2.0 3.0 -1 ------- null}
r -t 0.197333333333333 -s 0 -d 3 -p cbr -e 1000 -c 2 -i 9 -a 2 -x {2.0 3.0 9 ------- null}
r -t 0.200666666666667 -s 2 -d 0 -p cbr -e 1000 -c 2 -i 11 -a 2 -x {2.0 3.0 11 ------- null}
+ -t 0.200666666666667 -s 0 -d 3 -p cbr -e 1000 -c 2 -i 11 -a 2 -x {2.0 3.0 11 ------- null}
- -t 0.200666666666667 -s 0 -d 3 -p cbr -e 1000 -c 2 -i 11 -a 2 -x {2.0 3.0 11 ------- null}
h -t 0.200666666666667 -s 0 -d 3 -p cbr -e 1000 -c 2 -i 11 -a 2 -x {2.0 3.0 -1 ------- null}
+ -t 0.204 -s 2 -d 0 -p cbr -e 1000 -c 2 -i 13 -a 2 -x {2.0 3.0 13 ------- null}
- -t 0.204 -s 2 -d 0 -p cbr -e 1000 -c 2 -i 13 -a 2 -x {2.0 3.0 13 ------- null}
h -t 0.204 -s 2 -d 0 -p cbr -e 1000 -c 2 -i 13 -a 2 -x {2.0 3.0 -1 ------- null}
r -t 0.205333333333333 -s 0 -d 3 -p cbr -e 1000 -c 2 -i 10 -a 2 -x {2.0 3.0 10 ------- null}
r -t 0.208666666666667 -s 2 -d 0 -p cbr -e 1000 -c 2 -i 12 -a 2 -x {2.0 3.0 12 ------- null}
+ -t 0.208666666666667 -s 0 -d 3 -p cbr -e 1000 -c 2 -i 12 -a 2 -x {2.0 3.0 12 ------- null}
- -t 0.208666666666667 -s 0 -d 3 -p cbr -e 1000 -c 2 -i 12 -a 2 -x {2.0 3.0 12 ------- null}
h -t 0.208666666666667 -s 0 -d 3 -p cbr -e 1000 -c 2 -i 12 -a 2 -x {2.0 3.0 -1 ------- null}
+ -t 0.212 -s 2 -d 0 -p cbr -e 1000 -c 2 -i 14 -a 2 -x {2.0 3.0 14 ------- null}
- -t 0.212 -s 2 -d 0 -p cbr -e 1000 -c 2 -i 14 -a 2 -x {2.0 3.0 14 ------- null}
h -t 0.212 -s 2 -d 0 -p cbr -e 1000 -c 2 -i 14 -a 2 -x {2.0 3.0 -1 ------- null}
r -t 0.213333333333333 -s 0 -d 3 -p cbr -e 1000 -c 2 -i 11 -a 2 -x {2.0 3.0 11 ------- null}
r -t 0.216666666666667 -s 2 -d 0 -p cbr -e 1000 -c 2 -i 13 -a 2 -x {2.0 3.0 13 ------- null}
+ -t 0.216666666666667 -s 0 -d 3 -p cbr -e 1000 -c 2 -i 13 -a 2 -x {2.0 3.0 13 ------- null}
- -t 0.216666666666667 -s 0 -d 3 -p cbr -e 1000 -c 2 -i 13 -a 2 -x {2.0 3.0 13 ------- null}
h -t 0.216666666666667 -s 0 -d 3 -p cbr -e 1000 -c 2 -i 13 -a 2 -x {2.0 3.0 -1 ------- null}
+ -t 0.22 -s 2 -d 0 -p cbr -e 1000 -c 2 -i 15 -a 2 -x {2.0 3.0 15 ------- null}
- -t 0.22 -s 2 -d 0 -p cbr -e 1000 -c 2 -i 15 -a 2 -x {2.0 3.0 15 ------- null}
h -t 0.22 -s 2 -d 0 -p cbr -e 1000 -c 2 -i 15 -a 2 -x {2.0 3.0 -1 ------- null}
r -t 0.221333333333333 -s 0 -d 3 -p cbr -e 1000 -c 2 -i 12 -a 2 -x {2.0 3.0 12 ------- null}
r -t 0.224666666666667 -s 2 -d 0 -p cbr -e 1000 -c 2 -i 14 -a 2 -x {2.0 3.0 14 ------- null}
+ -t 0.224666666666667 -s 0 -d 3 -p cbr -e 1000 -c 2 -i 14 -a 2 -x {2.0 3.0 14 ------- null}
- -t 0.224666666666667 -s 0 -d 3 -p cbr -e 1000 -c 2 -i 14 -a 2 -x {2.0 3.0 14 ------- null}
h -t 0.224666666666667 -s 0 -d 3 -p cbr -e 1000 -c 2 -i 14 -a 2 -x {2.0 3.0 -1 ------- null}
+ -t 0.228 -s 2 -d 0 -p cbr -e 1000 -c 2 -i 16 -a 2 -x {2.0 3.0 16 ------- null}
- -t 0.228 -s 2 -d 0 -p cbr -e 1000 -c 2 -i 16 -a 2 -x {2.0 3.0 16 ------- null}
h -t 0.228 -s 2 -d 0 -p cbr -e 1000 -c 2 -i 16 -a 2 -x {2.0 3.0 -1 ------- null}
r -t 0.229333333333333 -s 0 -d 3 -p cbr -e 1000 -c 2 -i 13 -a 2 -x {2.0 3.0 13 ------- null}
r -t 0.232666666666667 -s 2 -d 0 -p cbr -e 1000 -c 2 -i 15 -a 2 -x {2.0 3.0 15 ------- null}
+ -t 0.232666666666667 -s 0 -d 3 -p cbr -e 1000 -c 2 -i 15 -a 2 -x {2.0 3.0 15 ------- null}
- -t 0.232666666666667 -s 0 -d 3 -p cbr -e 1000 -c 2 -i 15 -a 2 -x {2.0 3.0 15 ------- null}
h -t 0.232666666666667 -s 0 -d 3 -p cbr -e 1000 -c 2 -i 15 -a 2 -x {2.0 3.0 -1 ------- null}
+ -t 0.236 -s 2 -d 0 -p cbr -e 1000 -c 2 -i 17 -a 2 -x {2.0 3.0 17 ------- null}
- -t 0.236 -s 2 -d 0 -p cbr -e 1000 -c 2 -i 17 -a 2 -x {2.0 3.0 17 ------- null}
h -t 0.236 -s 2 -d 0 -p cbr -e 1000 -c 2 -i 17 -a 2 -x {2.0 3.0 -1 ------- null}
r -t 0.237333333333333 -s 0 -d 3 -p cbr -e 1000 -c 2 -i 14 -a 2 -x {2.0 3.0 14 ------- null}
r -t 0.240666666666667 -s 2 -d 0 -p cbr -e 1000 -c 2 -i 16 -a 2 -x {2.0 3.0 16 ------- null}
+ -t 0.240666666666667 -s 0 -d 3 -p cbr -e 1000 -c 2 -i 16 -a 2 -x {2.0 3.0 16 ------- null}
- -t 0.240666666666667 -s 0 -d 3 -p cbr -e 1000 -c 2 -i 16 -a 2 -x {2.0 3.0 16 ------- null}
h -t 0.240666666666667 -s 0 -d 3 -p cbr -e 1000 -c 2 -i 16 -a 2 -x {2.0 3.0 -1 ------- null}
+ -t 0.244 -s 2 -d 0 -p cbr -e 1000 -c 2 -i 18 -a 2 -x {2.0 3.0 18 ------- null}
- -t 0.244 -s 2 -d 0 -p cbr -e 1000 -c 2 -i 18 -a 2 -x {2.0 3.0 18 ------- null}
h -t 0.244 -s 2 -d 0 -p cbr -e 1000 -c 2 -i 18 -a 2 -x {2.0 3.0 -1 ------- null}
r -t 0.245333333333333 -s 0 -d 3 -p cbr -e 1000 -c 2 -i 15 -a 2 -x {2.0 3.0 15 ------- null}
r -t 0.248666666666667 -s 2 -d 0 -p cbr -e 1000 -c 2 -i 17 -a 2 -x {2.0 3.0 17 ------- null}
+ -t 0.248666666666667 -s 0 -d 3 -p cbr -e 1000 -c 2 -i 17 -a 2 -x {2.0 3.0 17 ------- null}
- -t 0.248666666666667 -s 0 -d 3 -p cbr -e 1000 -c 2 -i 17 -a 2 -x {2.0 3.0 17 ------- null}
h -t 0.248666666666667 -s 0 -d 3 -p cbr -e 1000 -c 2 -i 17 -a 2 -x {2.0 3.0 -1 ------- null}
+ -t 0.252 -s 2 -d 0 -p cbr -e 1000 -c 2 -i 19 -a 2 -x {2.0 3.0 19 ------- null}
- -t 0.252 -s 2 -d 0 -p cbr -e 1000 -c 2 -i 19 -a 2 -x {2.0 3.0 19 ------- null}
h -t 0.252 -s 2 -d 0 -p cbr -e 1000 -c 2 -i 19 -a 2 -x {2.0 3.0 -1 ------- null}
r -t 0.253333333333333 -s 0 -d 3 -p cbr -e 1000 -c 2 -i 16 -a 2 -x {2.0 3.0 16 ------- null}
r -t 0.256666666666667 -s 2 -d 0 -p cbr -e 1000 -c 2 -i 18 -a 2 -x {2.0 3.0 18 ------- null}
+ -t 0.256666666666667 -s 0 -d 3 -p cbr -e 1000 -c 2 -i 18 -a 2 -x {2.0 3.0 18 ------- null}
- -t 0.256666666666667 -s 0 -d 3 -p cbr -e 1000 -c 2 -i 18 -a 2 -x {2.0 3.0 18 ------- null}
h -t 0.256666666666667 -s 0 -d 3 -p cbr -e 1000 -c 2 -i 18 -a 2 -x {2.0 3.0 -1 ------- null}
+ -t 0.26 -s 2 -d 0 -p cbr -e 1000 -c 2 -i 20 -a 2 -x {2.0 3.0 20 ------- null}
- -t 0.26 -s 2 -d 0 -p cbr -e 1000 -c 2 -i 20 -a 2 -x {2.0 3.0 20 ------- null}
h -t 0.26 -s 2 -d 0 -p cbr -e 1000 -c 2 -i 20 -a 2 -x {2.0 3.0 -1 ------- null}
r -t 0.261333333333333 -s 0 -d 3 -p cbr -e 1000 -c 2 -i 17 -a 2 -x {2.0 3.0 17 ------- null}
r -t 0.264666666666667 -s 2 -d 0 -p cbr -e 1000 -c 2 -i 19 -a 2 -x {2.0 3.0 19 ------- null}
+ -t 0.264666666666667 -s 0 -d 3 -p cbr -e 1000 -c 2 -i 19 -a 2 -x {2.0 3.0 19 ------- null}
- -t 0.264666666666667 -s 0 -d 3 -p cbr -e 1000 -c 2 -i 19 -a 2 -x {2.0 3.0 19 ------- null}
h -t 0.264666666666667 -s 0 -d 3 -p cbr -e 1000 -c 2 -i 19 -a 2 -x {2.0 3.0 -1 ------- null}
+ -t 0.268 -s 2 -d 0 -p cbr -e 1000 -c 2 -i 21 -a 2 -x {2.0 3.0 21 ------- null}
- -t 0.268 -s 2 -d 0 -p cbr -e 1000 -c 2 -i 21 -a 2 -x {2.0 3.0 21 ------- null}
h -t 0.268 -s 2 -d 0 -p cbr -e 1000 -c 2 -i 21 -a 2 -x {2.0 3.0 -1 ------- null}
r -t 0.269333333333333 -s 0 -d 3 -p cbr -e 1000 -c 2 -i 18 -a 2 -x {2.0 3.0 18 ------- null}
r -t 0.272666666666667 -s 2 -d 0 -p cbr -e 1000 -c 2 -i 20 -a 2 -x {2.0 3.0 20 ------- null}
+ -t 0.272666666666667 -s 0 -d 3 -p cbr -e 1000 -c 2 -i 20 -a 2 -x {2.0 3.0 20 ------- null}
- -t 0.272666666666667 -s 0 -d 3 -p cbr -e 1000 -c 2 -i 20 -a 2 -x {2.0 3.0 20 ------- null}
h -t 0.272666666666667 -s 0 -d 3 -p cbr -e 1000 -c 2 -i 20 -a 2 -x {2.0 3.0 -1 ------- null}
+ -t 0.276 -s 2 -d 0 -p cbr -e 1000 -c 2 -i 22 -a 2 -x {2.0 3.0 22 ------- null}
- -t 0.276 -s 2 -d 0 -p cbr -e 1000 -c 2 -i 22 -a 2 -x {2.0 3.0 22 ------- null}
h -t 0.276 -s 2 -d 0 -p cbr -e 1000 -c 2 -i 22 -a 2 -x {2.0 3.0 -1 ------- null}
r -t 0.277333333333333 -s 0 -d 3 -p cbr -e 1000 -c 2 -i 19 -a 2 -x {2.0 3.0 19 ------- null}
r -t 0.280666666666667 -s 2 -d 0 -p cbr -e 1000 -c 2 -i 21 -a 2 -x {2.0 3.0 21 ------- null}
+ -t 0.280666666666667 -s 0 -d 3 -p cbr -e 1000 -c 2 -i 21 -a 2 -x {2.0 3.0 21 ------- null}
- -t 0.280666666666667 -s 0 -d 3 -p cbr -e 1000 -c 2 -i 21 -a 2 -x {2.0 3.0 21 ------- null}
h -t 0.280666666666667 -s 0 -d 3 -p cbr -e 1000 -c 2 -i 21 -a 2 -x {2.0 3.0 -1 ------- null}
+ -t 0.284 -s 2 -d 0 -p cbr -e 1000 -c 2 -i 23 -a 2 -x {2.0 3.0 23 ------- null}
- -t 0.284 -s 2 -d 0 -p cbr -e 1000 -c 2 -i 23 -a 2 -x {2.0 3.0 23 ------- null}
h -t 0.284 -s 2 -d 0 -p cbr -e 1000 -c 2 -i 23 -a 2 -x {2.0 3.0 -1 ------- null}
r -t 0.285333333333333 -s 0 -d 3 -p cbr -e 1000 -c 2 -i 20 -a 2 -x {2.0 3.0 20 ------- null}
r -t 0.288666666666667 -s 2 -d 0 -p cbr -e 1000 -c 2 -i 22 -a 2 -x {2.0 3.0 22 ------- null}
+ -t 0.288666666666667 -s 0 -d 3 -p cbr -e 1000 -c 2 -i 22 -a 2 -x {2.0 3.0 22 ------- null}
- -t 0.288666666666667 -s 0 -d 3 -p cbr -e 1000 -c 2 -i 22 -a 2 -x {2.0 3.0 22 ------- null}
h -t 0.288666666666667 -s 0 -d 3 -p cbr -e 1000 -c 2 -i 22 -a 2 -x {2.0 3.0 -1 ------- null}
+ -t 0.292 -s 2 -d 0 -p cbr -e 1000 -c 2 -i 24 -a 2 -x {2.0 3.0 24 ------- null}
- -t 0.292 -s 2 -d 0 -p cbr -e 1000 -c 2 -i 24 -a 2 -x {2.0 3.0 24 ------- null}
h -t 0.292 -s 2 -d 0 -p cbr -e 1000 -c 2 -i 24 -a 2 -x {2.0 3.0 -1 ------- null}
r -t 0.293333333333333 -s 0 -d 3 -p cbr -e 1000 -c 2 -i 21 -a 2 -x {2.0 3.0 21 ------- null}
r -t 0.296666666666667 -s 2 -d 0 -p cbr -e 1000 -c 2 -i 23 -a 2 -x {2.0 3.0 23 ------- null}
+ -t 0.296666666666667 -s 0 -d 3 -p cbr -e 1000 -c 2 -i 23 -a 2 -x {2.0 3.0 23 ------- null}
- -t 0.296666666666667 -s 0 -d 3 -p cbr -e 1000 -c 2 -i 23 -a 2 -x {2.0 3.0 23 ------- null}
h -t 0.296666666666667 -s 0 -d 3 -p cbr -e 1000 -c 2 -i 23 -a 2 -x {2.0 3.0 -1 ------- null}
+ -t 0.3 -s 2 -d 0 -p cbr -e 1000 -c 2 -i 25 -a 2 -x {2.0 3.0 25 ------- null}
- -t 0.3 -s 2 -d 0 -p cbr -e 1000 -c 2 -i 25 -a 2 -x {2.0 3.0 25 ------- null}
h -t 0.3 -s 2 -d 0 -p cbr -e 1000 -c 2 -i 25 -a 2 -x {2.0 3.0 -1 ------- null}
r -t 0.301333333333333 -s 0 -d 3 -p cbr -e 1000 -c 2 -i 22 -a 2 -x {2.0 3.0 22 ------- null}
r -t 0.304666666666667 -s 2 -d 0 -p cbr -e 1000 -c 2 -i 24 -a 2 -x {2.0 3.0 24 ------- null}
+ -t 0.304666666666667 -s 0 -d 3 -p cbr -e 1000 -c 2 -i 24 -a 2 -x {2.0 3.0 24 ------- null}
- -t 0.304666666666667 -s 0 -d 3 -p cbr -e 1000 -c 2 -i 24 -a 2 -x {2.0 3.0 24 ------- null}
h -t 0.304666666666667 -s 0 -d 3 -p cbr -e 1000 -c 2 -i 24 -a 2 -x {2.0 3.0 -1 ------- null}
+ -t 0.308 -s 2 -d 0 -p cbr -e 1000 -c 2 -i 26 -a 2 -x {2.0 3.0 26 ------- null}
- -t 0.308 -s 2 -d 0 -p cbr -e 1000 -c 2 -i 26 -a 2 -x {2.0 3.0 26 ------- null}
h -t 0.308 -s 2 -d 0 -p cbr -e 1000 -c 2 -i 26 -a 2 -x {2.0 3.0 -1 ------- null}
r -t 0.309333333333333 -s 0 -d 3 -p cbr -e 1000 -c 2 -i 23 -a 2 -x {2.0 3.0 23 ------- null}
r -t 0.312666666666667 -s 2 -d 0 -p cbr -e 1000 -c 2 -i 25 -a 2 -x {2.0 3.0 25 ------- null}
+ -t 0.312666666666667 -s 0 -d 3 -p cbr -e 1000 -c 2 -i 25 -a 2 -x {2.0 3.0 25 ------- null}
- -t 0.312666666666667 -s 0 -d 3 -p cbr -e 1000 -c 2 -i 25 -a 2 -x {2.0 3.0 25 ------- null}
h -t 0.312666666666667 -s 0 -d 3 -p cbr -e 1000 -c 2 -i 25 -a 2 -x {2.0 3.0 -1 ------- null}
+ -t 0.316 -s 2 -d 0 -p cbr -e 1000 -c 2 -i 27 -a 2 -x {2.0 3.0 27 ------- null}
- -t 0.316 -s 2 -d 0 -p cbr -e 1000 -c 2 -i 27 -a 2 -x {2.0 3.0 27 ------- null}
h -t 0.316 -s 2 -d 0 -p cbr -e 1000 -c 2 -i 27 -a 2 -x {2.0 3.0 -1 ------- null}
r -t 0.317333333333333 -s 0 -d 3 -p cbr -e 1000 -c 2 -i 24 -a 2 -x {2.0 3.0 24 ------- null}
r -t 0.320666666666667 -s 2 -d 0 -p cbr -e 1000 -c 2 -i 26 -a 2 -x {2.0 3.0 26 ------- null}
+ -t 0.320666666666667 -s 0 -d 3 -p cbr -e 1000 -c 2 -i 26 -a 2 -x {2.0 3.0 26 ------- null}
- -t 0.320666666666667 -s 0 -d 3 -p cbr -e 1000 -c 2 -i 26 -a 2 -x {2.0 3.0 26 ------- null}
h -t 0.320666666666667 -s 0 -d 3 -p cbr -e 1000 -c 2 -i 26 -a 2 -x {2.0 3.0 -1 ------- null}
+ -t 0.324 -s 2 -d 0 -p cbr -e 1000 -c 2 -i 28 -a 2 -x {2.0 3.0 28 ------- null}
- -t 0.324 -s 2 -d 0 -p cbr -e 1000 -c 2 -i 28 -a 2 -x {2.0 3.0 28 ------- null}
h -t 0.324 -s 2 -d 0 -p cbr -e 1000 -c 2 -i 28 -a 2 -x {2.0 3.0 -1 ------- null}
r -t 0.325333333333333 -s 0 -d 3 -p cbr -e 1000 -c 2 -i 25 -a 2 -x {2.0 3.0 25 ------- null}
r -t 0.328666666666667 -s 2 -d 0 -p cbr -e 1000 -c 2 -i 27 -a 2 -x {2.0 3.0 27 ------- null}
+ -t 0.328666666666667 -s 0 -d 3 -p cbr -e 1000 -c 2 -i 27 -a 2 -x {2.0 3.0 27 ------- null}
- -t 0.328666666666667 -s 0 -d 3 -p cbr -e 1000 -c 2 -i 27 -a 2 -x {2.0 3.0 27 ------- null}
h -t 0.328666666666667 -s 0 -d 3 -p cbr -e 1000 -c 2 -i 27 -a 2 -x {2.0 3.0 -1 ------- null}
+ -t 0.332 -s 2 -d 0 -p cbr -e 1000 -c 2 -i 29 -a 2 -x {2.0 3.0 29 ------- null}
- -t 0.332 -s 2 -d 0 -p cbr -e 1000 -c 2 -i 29 -a 2 -x {2.0 3.0 29 ------- null}
h -t 0.332 -s 2 -d 0 -p cbr -e 1000 -c 2 -i 29 -a 2 -x {2.0 3.0 -1 ------- null}
r -t 0.333333333333333 -s 0 -d 3 -p cbr -e 1000 -c 2 -i 26 -a 2 -x {2.0 3.0 26 ------- null}
r -t 0.336666666666667 -s 2 -d 0 -p cbr -e 1000 -c 2 -i 28 -a 2 -x {2.0 3.0 28 ------- null}
+ -t 0.336666666666667 -s 0 -d 3 -p cbr -e 1000 -c 2 -i 28 -a 2 -x {2.0 3.0 28 ------- null}
- -t 0.336666666666667 -s 0 -d 3 -p cbr -e 1000 -c 2 -i 28 -a 2 -x {2.0 3.0 28 ------- null}
h -t 0.336666666666667 -s 0 -d 3 -p cbr -e 1000 -c 2 -i 28 -a 2 -x {2.0 3.0 -1 ------- null}
+ -t 0.34 -s 2 -d 0 -p cbr -e 1000 -c 2 -i 30 -a 2 -x {2.0 3.0 30 ------- null}
- -t 0.34 -s 2 -d 0 -p cbr -e 1000 -c 2 -i 30 -a 2 -x {2.0 3.0 30 ------- null}
h -t 0.34 -s 2 -d 0 -p cbr -e 1000 -c 2 -i 30 -a 2 -x {2.0 3.0 -1 ------- null}
r -t 0.341333333333333 -s 0 -d 3 -p cbr -e 1000 -c 2 -i 27 -a 2 -x {2.0 3.0 27 ------- null}
r -t 0.344666666666667 -s 2 -d 0 -p cbr -e 1000 -c 2 -i 29 -a 2 -x {2.0 3.0 29 ------- null}
+ -t 0.344666666666667 -s 0 -d 3 -p cbr -e 1000 -c 2 -i 29 -a 2 -x {2.0 3.0 29 ------- null}
- -t 0.344666666666667 -s 0 -d 3 -p cbr -e 1000 -c 2 -i 29 -a 2 -x {2.0 3.0 29 ------- null}
h -t 0.344666666666667 -s 0 -d 3 -p cbr -e 1000 -c 2 -i 29 -a 2 -x {2.0 3.0 -1 ------- null}
+ -t 0.348 -s 2 -d 0 -p cbr -e 1000 -c 2 -i 31 -a 2 -x {2.0 3.0 31 ------- null}
- -t 0.348 -s 2 -d 0 -p cbr -e 1000 -c 2 -i 31 -a 2 -x {2.0 3.0 31 ------- null}
h -t 0.348 -s 2 -d 0 -p cbr -e 1000 -c 2 -i 31 -a 2 -x {2.0 3.0 -1 ------- null}
r -t 0.349333333333333 -s 0 -d 3 -p cbr -e 1000 -c 2 -i 28 -a 2 -x {2.0 3.0 28 ------- null}
r -t 0.352666666666667 -s 2 -d 0 -p cbr -e 1000 -c 2 -i 30 -a 2 -x {2.0 3.0 30 ------- null}
+ -t 0.352666666666667 -s 0 -d 3 -p cbr -e 1000 -c 2 -i 30 -a 2 -x {2.0 3.0 30 ------- null}
- -t 0.352666666666667 -s 0 -d 3 -p cbr -e 1000 -c 2 -i 30 -a 2 -x {2.0 3.0 30 ------- null}
h -t 0.352666666666667 -s 0 -d 3 -p cbr -e 1000 -c 2 -i 30 -a 2 -x {2.0 3.0 -1 ------- null}
+ -t 0.356 -s 2 -d 0 -p cbr -e 1000 -c 2 -i 32 -a 2 -x {2.0 3.0 32 ------- null}
- -t 0.356 -s 2 -d 0 -p cbr -e 1000 -c 2 -i 32 -a 2 -x {2.0 3.0 32 ------- null}
h -t 0.356 -s 2 -d 0 -p cbr -e 1000 -c 2 -i 32 -a 2 -x {2.0 3.0 -1 ------- null}
r -t 0.357333333333334 -s 0 -d 3 -p cbr -e 1000 -c 2 -i 29 -a 2 -x {2.0 3.0 29 ------- null}
r -t 0.360666666666667 -s 2 -d 0 -p cbr -e 1000 -c 2 -i 31 -a 2 -x {2.0 3.0 31 ------- null}
+ -t 0.360666666666667 -s 0 -d 3 -p cbr -e 1000 -c 2 -i 31 -a 2 -x {2.0 3.0 31 ------- null}
- -t 0.360666666666667 -s 0 -d 3 -p cbr -e 1000 -c 2 -i 31 -a 2 -x {2.0 3.0 31 ------- null}
h -t 0.360666666666667 -s 0 -d 3 -p cbr -e 1000 -c 2 -i 31 -a 2 -x {2.0 3.0 -1 ------- null}
+ -t 0.364 -s 2 -d 0 -p cbr -e 1000 -c 2 -i 33 -a 2 -x {2.0 3.0 33 ------- null}
- -t 0.364 -s 2 -d 0 -p cbr -e 1000 -c 2 -i 33 -a 2 -x {2.0 3.0 33 ------- null}
h -t 0.364 -s 2 -d 0 -p cbr -e 1000 -c 2 -i 33 -a 2 -x {2.0 3.0 -1 ------- null}
r -t 0.365333333333334 -s 0 -d 3 -p cbr -e 1000 -c 2 -i 30 -a 2 -x {2.0 3.0 30 ------- null}
r -t 0.368666666666667 -s 2 -d 0 -p cbr -e 1000 -c 2 -i 32 -a 2 -x {2.0 3.0 32 ------- null}
+ -t 0.368666666666667 -s 0 -d 3 -p cbr -e 1000 -c 2 -i 32 -a 2 -x {2.0 3.0 32 ------- null}
- -t 0.368666666666667 -s 0 -d 3 -p cbr -e 1000 -c 2 -i 32 -a 2 -x {2.0 3.0 32 ------- null}
h -t 0.368666666666667 -s 0 -d 3 -p cbr -e 1000 -c 2 -i 32 -a 2 -x {2.0 3.0 -1 ------- null}
+ -t 0.372 -s 2 -d 0 -p cbr -e 1000 -c 2 -i 34 -a 2 -x {2.0 3.0 34 ------- null}
- -t 0.372 -s 2 -d 0 -p cbr -e 1000 -c 2 -i 34 -a 2 -x {2.0 3.0 34 ------- null}
h -t 0.372 -s 2 -d 0 -p cbr -e 1000 -c 2 -i 34 -a 2 -x {2.0 3.0 -1 ------- null}
r -t 0.373333333333334 -s 0 -d 3 -p cbr -e 1000 -c 2 -i 31 -a 2 -x {2.0 3.0 31 ------- null}
r -t 0.376666666666667 -s 2 -d 0 -p cbr -e 1000 -c 2 -i 33 -a 2 -x {2.0 3.0 33 ------- null}
+ -t 0.376666666666667 -s 0 -d 3 -p cbr -e 1000 -c 2 -i 33 -a 2 -x {2.0 3.0 33 ------- null}
- -t 0.376666666666667 -s 0 -d 3 -p cbr -e 1000 -c 2 -i 33 -a 2 -x {2.0 3.0 33 ------- null}
h -t 0.376666666666667 -s 0 -d 3 -p cbr -e 1000 -c 2 -i 33 -a 2 -x {2.0 3.0 -1 ------- null}
+ -t 0.38 -s 2 -d 0 -p cbr -e 1000 -c 2 -i 35 -a 2 -x {2.0 3.0 35 ------- null}
- -t 0.38 -s 2 -d 0 -p cbr -e 1000 -c 2 -i 35 -a 2 -x {2.0 3.0 35 ------- null}
h -t 0.38 -s 2 -d 0 -p cbr -e 1000 -c 2 -i 35 -a 2 -x {2.0 3.0 -1 ------- null}
r -t 0.381333333333334 -s 0 -d 3 -p cbr -e 1000 -c 2 -i 32 -a 2 -x {2.0 3.0 32 ------- null}
r -t 0.384666666666667 -s 2 -d 0 -p cbr -e 1000 -c 2 -i 34 -a 2 -x {2.0 3.0 34 ------- null}
+ -t 0.384666666666667 -s 0 -d 3 -p cbr -e 1000 -c 2 -i 34 -a 2 -x {2.0 3.0 34 ------- null}
- -t 0.384666666666667 -s 0 -d 3 -p cbr -e 1000 -c 2 -i 34 -a 2 -x {2.0 3.0 34 ------- null}
h -t 0.384666666666667 -s 0 -d 3 -p cbr -e 1000 -c 2 -i 34 -a 2 -x {2.0 3.0 -1 ------- null}
+ -t 0.388 -s 2 -d 0 -p cbr -e 1000 -c 2 -i 36 -a 2 -x {2.0 3.0 36 ------- null}
- -t 0.388 -s 2 -d 0 -p cbr -e 1000 -c 2 -i 36 -a 2 -x {2.0 3.0 36 ------- null}
h -t 0.388 -s 2 -d 0 -p cbr -e 1000 -c 2 -i 36 -a 2 -x {2.0 3.0 -1 ------- null}
r -t 0.389333333333334 -s 0 -d 3 -p cbr -e 1000 -c 2 -i 33 -a 2 -x {2.0 3.0 33 ------- null}
r -t 0.392666666666667 -s 2 -d 0 -p cbr -e 1000 -c 2 -i 35 -a 2 -x {2.0 3.0 35 ------- null}
+ -t 0.392666666666667 -s 0 -d 3 -p cbr -e 1000 -c 2 -i 35 -a 2 -x {2.0 3.0 35 ------- null}
- -t 0.392666666666667 -s 0 -d 3 -p cbr -e 1000 -c 2 -i 35 -a 2 -x {2.0 3.0 35 ------- null}
h -t 0.392666666666667 -s 0 -d 3 -p cbr -e 1000 -c 2 -i 35 -a 2 -x {2.0 3.0 -1 ------- null}
+ -t 0.396 -s 2 -d 0 -p cbr -e 1000 -c 2 -i 37 -a 2 -x {2.0 3.0 37 ------- null}
- -t 0.396 -s 2 -d 0 -p cbr -e 1000 -c 2 -i 37 -a 2 -x {2.0 3.0 37 ------- null}
h -t 0.396 -s 2 -d 0 -p cbr -e 1000 -c 2 -i 37 -a 2 -x {2.0 3.0 -1 ------- null}
r -t 0.397333333333334 -s 0 -d 3 -p cbr -e 1000 -c 2 -i 34 -a 2 -x {2.0 3.0 34 ------- null}
r -t 0.400666666666667 -s 2 -d 0 -p cbr -e 1000 -c 2 -i 36 -a 2 -x {2.0 3.0 36 ------- null}
+ -t 0.400666666666667 -s 0 -d 3 -p cbr -e 1000 -c 2 -i 36 -a 2 -x {2.0 3.0 36 ------- null}
- -t 0.400666666666667 -s 0 -d 3 -p cbr -e 1000 -c 2 -i 36 -a 2 -x {2.0 3.0 36 ------- null}
h -t 0.400666666666667 -s 0 -d 3 -p cbr -e 1000 -c 2 -i 36 -a 2 -x {2.0 3.0 -1 ------- null}
+ -t 0.404 -s 2 -d 0 -p cbr -e 1000 -c 2 -i 38 -a 2 -x {2.0 3.0 38 ------- null}
- -t 0.404 -s 2 -d 0 -p cbr -e 1000 -c 2 -i 38 -a 2 -x {2.0 3.0 38 ------- null}
h -t 0.404 -s 2 -d 0 -p cbr -e 1000 -c 2 -i 38 -a 2 -x {2.0 3.0 -1 ------- null}
r -t 0.405333333333334 -s 0 -d 3 -p cbr -e 1000 -c 2 -i 35 -a 2 -x {2.0 3.0 35 ------- null}
r -t 0.408666666666667 -s 2 -d 0 -p cbr -e 1000 -c 2 -i 37 -a 2 -x {2.0 3.0 37 ------- null}
+ -t 0.408666666666667 -s 0 -d 3 -p cbr -e 1000 -c 2 -i 37 -a 2 -x {2.0 3.0 37 ------- null}
- -t 0.408666666666667 -s 0 -d 3 -p cbr -e 1000 -c 2 -i 37 -a 2 -x {2.0 3.0 37 ------- null}
h -t 0.408666666666667 -s 0 -d 3 -p cbr -e 1000 -c 2 -i 37 -a 2 -x {2.0 3.0 -1 ------- null}
+ -t 0.412 -s 2 -d 0 -p cbr -e 1000 -c 2 -i 39 -a 2 -x {2.0 3.0 39 ------- null}
- -t 0.412 -s 2 -d 0 -p cbr -e 1000 -c 2 -i 39 -a 2 -x {2.0 3.0 39 ------- null}
h -t 0.412 -s 2 -d 0 -p cbr -e 1000 -c 2 -i 39 -a 2 -x {2.0 3.0 -1 ------- null}
r -t 0.413333333333334 -s 0 -d 3 -p cbr -e 1000 -c 2 -i 36 -a 2 -x {2.0 3.0 36 ------- null}
r -t 0.416666666666667 -s 2 -d 0 -p cbr -e 1000 -c 2 -i 38 -a 2 -x {2.0 3.0 38 ------- null}
+ -t 0.416666666666667 -s 0 -d 3 -p cbr -e 1000 -c 2 -i 38 -a 2 -x {2.0 3.0 38 ------- null}
- -t 0.416666666666667 -s 0 -d 3 -p cbr -e 1000 -c 2 -i 38 -a 2 -x {2.0 3.0 38 ------- null}
h -t 0.416666666666667 -s 0 -d 3 -p cbr -e 1000 -c 2 -i 38 -a 2 -x {2.0 3.0 -1 ------- null}
+ -t 0.42 -s 2 -d 0 -p cbr -e 1000 -c 2 -i 40 -a 2 -x {2.0 3.0 40 ------- null}
- -t 0.42 -s 2 -d 0 -p cbr -e 1000 -c 2 -i 40 -a 2 -x {2.0 3.0 40 ------- null}
h -t 0.42 -s 2 -d 0 -p cbr -e 1000 -c 2 -i 40 -a 2 -x {2.0 3.0 -1 ------- null}
r -t 0.421333333333334 -s 0 -d 3 -p cbr -e 1000 -c 2 -i 37 -a 2 -x {2.0 3.0 37 ------- null}
r -t 0.424666666666667 -s 2 -d 0 -p cbr -e 1000 -c 2 -i 39 -a 2 -x {2.0 3.0 39 ------- null}
+ -t 0.424666666666667 -s 0 -d 3 -p cbr -e 1000 -c 2 -i 39 -a 2 -x {2.0 3.0 39 ------- null}
- -t 0.424666666666667 -s 0 -d 3 -p cbr -e 1000 -c 2 -i 39 -a 2 -x {2.0 3.0 39 ------- null}
h -t 0.424666666666667 -s 0 -d 3 -p cbr -e 1000 -c 2 -i 39 -a 2 -x {2.0 3.0 -1 ------- null}
+ -t 0.428 -s 2 -d 0 -p cbr -e 1000 -c 2 -i 41 -a 2 -x {2.0 3.0 41 ------- null}
- -t 0.428 -s 2 -d 0 -p cbr -e 1000 -c 2 -i 41 -a 2 -x {2.0 3.0 41 ------- null}
h -t 0.428 -s 2 -d 0 -p cbr -e 1000 -c 2 -i 41 -a 2 -x {2.0 3.0 -1 ------- null}
r -t 0.429333333333334 -s 0 -d 3 -p cbr -e 1000 -c 2 -i 38 -a 2 -x {2.0 3.0 38 ------- null}
r -t 0.432666666666667 -s 2 -d 0 -p cbr -e 1000 -c 2 -i 40 -a 2 -x {2.0 3.0 40 ------- null}
+ -t 0.432666666666667 -s 0 -d 3 -p cbr -e 1000 -c 2 -i 40 -a 2 -x {2.0 3.0 40 ------- null}
- -t 0.432666666666667 -s 0 -d 3 -p cbr -e 1000 -c 2 -i 40 -a 2 -x {2.0 3.0 40 ------- null}
h -t 0.432666666666667 -s 0 -d 3 -p cbr -e 1000 -c 2 -i 40 -a 2 -x {2.0 3.0 -1 ------- null}
+ -t 0.436 -s 2 -d 0 -p cbr -e 1000 -c 2 -i 42 -a 2 -x {2.0 3.0 42 ------- null}
- -t 0.436 -s 2 -d 0 -p cbr -e 1000 -c 2 -i 42 -a 2 -x {2.0 3.0 42 ------- null}
h -t 0.436 -s 2 -d 0 -p cbr -e 1000 -c 2 -i 42 -a 2 -x {2.0 3.0 -1 ------- null}
r -t 0.437333333333334 -s 0 -d 3 -p cbr -e 1000 -c 2 -i 39 -a 2 -x {2.0 3.0 39 ------- null}
r -t 0.440666666666667 -s 2 -d 0 -p cbr -e 1000 -c 2 -i 41 -a 2 -x {2.0 3.0 41 ------- null}