+ 0.1 2 0 cbr 1000 ------- 2 2.0 3.0 0 0
- 0.1 2 0 cbr 1000 ------- 2 2.0 3.0 0 0
+ 0.108 2 0 cbr 1000 ------- 2 2.0 3.0 1 1
- 0.108 2 0 cbr 1000 ------- 2 2.0 3.0 1 1
r 0.112667 2 0 cbr 1000 ------- 2 2.0 3.0 0 0
+ 0.112667 0 3 cbr 1000 ------- 2 2.0 3.0 0 0
- 0.112667 0 3 cbr 1000 ------- 2 2.0 3.0 0 0
+ 0.116 2 0 cbr 1000 ------- 2 2.0 3.0 2 2
- 0.116 2 0 cbr 1000 ------- 2 2.0 3.0 2 2
r 0.120667 2 0 cbr 1000 ------- 2 2.0 3.0 1 1
+ 0.120667 0 3 cbr 1000 ------- 2 2.0 3.0 1 1
- 0.120667 0 3 cbr 1000 ------- 2 2.0 3.0 1 1
+ 0.124 2 0 cbr 1000 ------- 2 2.0 3.0 3 3
- 0.124 2 0 cbr 1000 ------- 2 2.0 3.0 3 3
r 0.125333 0 3 cbr 1000 ------- 2 2.0 3.0 0 0
r 0.128667 2 0 cbr 1000 ------- 2 2.0 3.0 2 2
+ 0.128667 0 3 cbr 1000 ------- 2 2.0 3.0 2 2
- 0.128667 0 3 cbr 1000 ------- 2 2.0 3.0 2 2
+ 0.132 2 0 cbr 1000 ------- 2 2.0 3.0 4 4
- 0.132 2 0 cbr 1000 ------- 2 2.0 3.0 4 4
r 0.133333 0 3 cbr 1000 ------- 2 2.0 3.0 1 1
r 0.136667 2 0 cbr 1000 ------- 2 2.0 3.0 3 3
+ 0.136667 0 3 cbr 1000 ------- 2 2.0 3.0 3 3
- 0.136667 0 3 cbr 1000 ------- 2 2.0 3.0 3 3
+ 0.14 2 0 cbr 1000 ------- 2 2.0 3.0 5 5
- 0.14 2 0 cbr 1000 ------- 2 2.0 3.0 5 5
r 0.141333 0 3 cbr 1000 ------- 2 2.0 3.0 2 2
r 0.144667 2 0 cbr 1000 ------- 2 2.0 3.0 4 4
+ 0.144667 0 3 cbr 1000 ------- 2 2.0 3.0 4 4
- 0.144667 0 3 cbr 1000 ------- 2 2.0 3.0 4 4
+ 0.148 2 0 cbr 1000 ------- 2 2.0 3.0 6 6
- 0.148 2 0 cbr 1000 ------- 2 2.0 3.0 6 6
r 0.149333 0 3 cbr 1000 ------- 2 2.0 3.0 3 3
r 0.152667 2 0 cbr 1000 ------- 2 2.0 3.0 5 5
+ 0.152667 0 3 cbr 1000 ------- 2 2.0 3.0 5 5
- 0.152667 0 3 cbr 1000 ------- 2 2.0 3.0 5 5
+ 0.156 2 0 cbr 1000 ------- 2 2.0 3.0 7 7
- 0.156 2 0 cbr 1000 ------- 2 2.0 3.0 7 7
r 0.157333 0 3 cbr 1000 ------- 2 2.0 3.0 4 4
r 0.160667 2 0 cbr 1000 ------- 2 2.0 3.0 6 6
+ 0.160667 0 3 cbr 1000 ------- 2 2.0 3.0 6 6
- 0.160667 0 3 cbr 1000 ------- 2 2.0 3.0 6 6
+ 0.164 2 0 cbr 1000 ------- 2 2.0 3.0 8 8
- 0.164 2 0 cbr 1000 ------- 2 2.0 3.0 8 8
r 0.165333 0 3 cbr 1000 ------- 2 2.0 3.0 5 5
r 0.168667 2 0 cbr 1000 ------- 2 2.0 3.0 7 7
+ 0.168667 0 3 cbr 1000 ------- 2 2.0 3.0 7 7
- 0.168667 0 3 cbr 1000 ------- 2 2.0 3.0 7 7
+ 0.172 2 0 cbr 1000 ------- 2 2.0 3.0 9 9
- 0.172 2 0 cbr 1000 ------- 2 2.0 3.0 9 9
r 0.173333 0 3 cbr 1000 ------- 2 2.0 3.0 6 6
r 0.176667 2 0 cbr 1000 ------- 2 2.0 3.0 8 8
+ 0.176667 0 3 cbr 1000 ------- 2 2.0 3.0 8 8
- 0.176667 0 3 cbr 1000 ------- 2 2.0 3.0 8 8
+ 0.18 2 0 cbr 1000 ------- 2 2.0 3.0 10 10
- 0.18 2 0 cbr 1000 ------- 2 2.0 3.0 10 10
r 0.181333 0 3 cbr 1000 ------- 2 2.0 3.0 7 7
r 0.184667 2 0 cbr 1000 ------- 2 2.0 3.0 9 9
+ 0.184667 0 3 cbr 1000 ------- 2 2.0 3.0 9 9
- 0.184667 0 3 cbr 1000 ------- 2 2.0 3.0 9 9
+ 0.188 2 0 cbr 1000 ------- 2 2.0 3.0 11 11
- 0.188 2 0 cbr 1000 ------- 2 2.0 3.0 11 11
r 0.189333 0 3 cbr 1000 ------- 2 2.0 3.0 8 8
r 0.192667 2 0 cbr 1000 ------- 2 2.0 3.0 10 10
+ 0.192667 0 3 cbr 1000 ------- 2 2.0 3.0 10 10
- 0.192667 0 3 cbr 1000 ------- 2 2.0 3.0 10 10
+ 0.196 2 0 cbr 1000 ------- 2 2.0 3.0 12 12
- 0.196 2 0 cbr 1000 ------- 2 2.0 3.0 12 12
r 0.197333 0 3 cbr 1000 ------- 2 2.0 3.0 9 9
r 0.200667 2 0 cbr 1000 ------- 2 2.0 3.0 11 11
+ 0.200667 0 3 cbr 1000 ------- 2 2.0 3.0 11 11
- 0.200667 0 3 cbr 1000 ------- 2 2.0 3.0 11 11
+ 0.204 2 0 cbr 1000 ------- 2 2.0 3.0 13 13
- 0.204 2 0 cbr 1000 ------- 2 2.0 3.0 13 13
r 0.205333 0 3 cbr 1000 ------- 2 2.0 3.0 10 10
r 0.208667 2 0 cbr 1000 ------- 2 2.0 3.0 12 12
+ 0.208667 0 3 cbr 1000 ------- 2 2.0 3.0 12 12
- 0.208667 0 3 cbr 1000 ------- 2 2.0 3.0 12 12
+ 0.212 2 0 cbr 1000 ------- 2 2.0 3.0 14 14
- 0.212 2 0 cbr 1000 ------- 2 2.0 3.0 14 14
r 0.213333 0 3 cbr 1000 ------- 2 2.0 3.0 11 11
r 0.216667 2 0 cbr 1000 ------- 2 2.0 3.0 13 13
+ 0.216667 0 3 cbr 1000 ------- 2 2.0 3.0 13 13
- 0.216667 0 3 cbr 1000 ------- 2 2.0 3.0 13 13
+ 0.22 2 0 cbr 1000 ------- 2 2.0 3.0 15 15
- 0.22 2 0 cbr 1000 ------- 2 2.0 3.0 15 15
r 0.221333 0 3 cbr 1000 ------- 2 2.0 3.0 12 12
r 0.224667 2 0 cbr 1000 ------- 2 2.0 3.0 14 14
+ 0.224667 0 3 cbr 1000 ------- 2 2.0 3.0 14 14
- 0.224667 0 3 cbr 1000 ------- 2 2.0 3.0 14 14
+ 0.228 2 0 cbr 1000 ------- 2 2.0 3.0 16 16
- 0.228 2 0 cbr 1000 ------- 2 2.0 3.0 16 16
r 0.229333 0 3 cbr 1000 ------- 2 2.0 3.0 13 13
r 0.232667 2 0 cbr 1000 ------- 2 2.0 3.0 15 15
+ 0.232667 0 3 cbr 1000 ------- 2 2.0 3.0 15 15
- 0.232667 0 3 cbr 1000 ------- 2 2.0 3.0 15 15
+ 0.236 2 0 cbr 1000 ------- 2 2.0 3.0 17 17
- 0.236 2 0 cbr 1000 ------- 2 2.0 3.0 17 17
r 0.237333 0 3 cbr 1000 ------- 2 2.0 3.0 14 14
r 0.240667 2 0 cbr 1000 ------- 2 2.0 3.0 16 16
+ 0.240667 0 3 cbr 1000 ------- 2 2.0 3.0 16 16
- 0.240667 0 3 cbr 1000 ------- 2 2.0 3.0 16 16
+ 0.244 2 0 cbr 1000 ------- 2 2.0 3.0 18 18
- 0.244 2 0 cbr 1000 ------- 2 2.0 3.0 18 18
r 0.245333 0 3 cbr 1000 ------- 2 2.0 3.0 15 15
r 0.248667 2 0 cbr 1000 ------- 2 2.0 3.0 17 17
+ 0.248667 0 3 cbr 1000 ------- 2 2.0 3.0 17 17
- 0.248667 0 3 cbr 1000 ------- 2 2.0 3.0 17 17
+ 0.252 2 0 cbr 1000 ------- 2 2.0 3.0 19 19
- 0.252 2 0 cbr 1000 ------- 2 2.0 3.0 19 19
r 0.253333 0 3 cbr 1000 ------- 2 2.0 3.0 16 16
r 0.256667 2 0 cbr 1000 ------- 2 2.0 3.0 18 18
+ 0.256667 0 3 cbr 1000 ------- 2 2.0 3.0 18 18
- 0.256667 0 3 cbr 1000 ------- 2 2.0 3.0 18 18
+ 0.26 2 0 cbr 1000 ------- 2 2.0 3.0 20 20
- 0.26 2 0 cbr 1000 ------- 2 2.0 3.0 20 20
r 0.261333 0 3 cbr 1000 ------- 2 2.0 3.0 17 17
r 0.264667 2 0 cbr 1000 ------- 2 2.0 3.0 19 19
+ 0.264667 0 3 cbr 1000 ------- 2 2.0 3.0 19 19
- 0.264667 0 3 cbr 1000 ------- 2 2.0 3.0 19 19
+ 0.268 2 0 cbr 1000 ------- 2 2.0 3.0 21 21
- 0.268 2 0 cbr 1000 ------- 2 2.0 3.0 21 21
r 0.269333 0 3 cbr 1000 ------- 2 2.0 3.0 18 18
r 0.272667 2 0 cbr 1000 ------- 2 2.0 3.0 20 20
+ 0.272667 0 3 cbr 1000 ------- 2 2.0 3.0 20 20
- 0.272667 0 3 cbr 1000 ------- 2 2.0 3.0 20 20
+ 0.276 2 0 cbr 1000 ------- 2 2.0 3.0 22 22
- 0.276 2 0 cbr 1000 ------- 2 2.0 3.0 22 22
r 0.277333 0 3 cbr 1000 ------- 2 2.0 3.0 19 19
r 0.280667 2 0 cbr 1000 ------- 2 2.0 3.0 21 21
+ 0.280667 0 3 cbr 1000 ------- 2 2.0 3.0 21 21
- 0.280667 0 3 cbr 1000 ------- 2 2.0 3.0 21 21
+ 0.284 2 0 cbr 1000 ------- 2 2.0 3.0 23 23
- 0.284 2 0 cbr 1000 ------- 2 2.0 3.0 23 23
r 0.285333 0 3 cbr 1000 ------- 2 2.0 3.0 20 20
r 0.288667 2 0 cbr 1000 ------- 2 2.0 3.0 22 22
+ 0.288667 0 3 cbr 1000 ------- 2 2.0 3.0 22 22
- 0.288667 0 3 cbr 1000 ------- 2 2.0 3.0 22 22
+ 0.292 2 0 cbr 1000 ------- 2 2.0 3.0 24 24
- 0.292 2 0 cbr 1000 ------- 2 2.0 3.0 24 24
r 0.293333 0 3 cbr 1000 ------- 2 2.0 3.0 21 21
r 0.296667 2 0 cbr 1000 ------- 2 2.0 3.0 23 23
+ 0.296667 0 3 cbr 1000 ------- 2 2.0 3.0 23 23
- 0.296667 0 3 cbr 1000 ------- 2 2.0 3.0 23 23
+ 0.3 2 0 cbr 1000 ------- 2 2.0 3.0 25 25
- 0.3 2 0 cbr 1000 ------- 2 2.0 3.0 25 25
r 0.301333 0 3 cbr 1000 ------- 2 2.0 3.0 22 22
r 0.304667 2 0 cbr 1000 ------- 2 2.0 3.0 24 24
+ 0.304667 0 3 cbr 1000 ------- 2 2.0 3.0 24 24
- 0.304667 0 3 cbr 1000 ------- 2 2.0 3.0 24 24
+ 0.308 2 0 cbr 1000 ------- 2 2.0 3.0 26 26
- 0.308 2 0 cbr 1000 ------- 2 2.0 3.0 26 26
r 0.309333 0 3 cbr 1000 ------- 2 2.0 3.0 23 23
r 0.312667 2 0 cbr 1000 ------- 2 2.0 3.0 25 25
+ 0.312667 0 3 cbr 1000 ------- 2 2.0 3.0 25 25
- 0.312667 0 3 cbr 1000 ------- 2 2.0 3.0 25 25
+ 0.316 2 0 cbr 1000 ------- 2 2.0 3.0 27 27
- 0.316 2 0 cbr 1000 ------- 2 2.0 3.0 27 27
r 0.317333 0 3 cbr 1000 ------- 2 2.0 3.0 24 24
r 0.320667 2 0 cbr 1000 ------- 2 2.0 3.0 26 26
+ 0.320667 0 3 cbr 1000 ------- 2 2.0 3.0 26 26
- 0.320667 0 3 cbr 1000 ------- 2 2.0 3.0 26 26
+ 0.324 2 0 cbr 1000 ------- 2 2.0 3.0 28 28
- 0.324 2 0 cbr 1000 ------- 2 2.0 3.0 28 28
r 0.325333 0 3 cbr 1000 ------- 2 2.0 3.0 25 25
r 0.328667 2 0 cbr 1000 ------- 2 2.0 3.0 27 27
+ 0.328667 0 3 cbr 1000 ------- 2 2.0 3.0 27 27
- 0.328667 0 3 cbr 1000 ------- 2 2.0 3.0 27 27
+ 0.332 2 0 cbr 1000 ------- 2 2.0 3.0 29 29
- 0.332 2 0 cbr 1000 ------- 2 2.0 3.0 29 29
r 0.333333 0 3 cbr 1000 ------- 2 2.0 3.0 26 26
r 0.336667 2 0 cbr 1000 ------- 2 2.0 3.0 28 28
+ 0.336667 0 3 cbr 1000 ------- 2 2.0 3.0 28 28
- 0.336667 0 3 cbr 1000 ------- 2 2.0 3.0 28 28
+ 0.34 2 0 cbr 1000 ------- 2 2.0 3.0 30 30
- 0.34 2 0 cbr 1000 ------- 2 2.0 3.0 30 30
r 0.341333 0 3 cbr 1000 ------- 2 2.0 3.0 27 27
r 0.344667 2 0 cbr 1000 ------- 2 2.0 3.0 29 29
+ 0.344667 0 3 cbr 1000 ------- 2 2.0 3.0 29 29
- 0.344667 0 3 cbr 1000 ------- 2 2.0 3.0 29 29
+ 0.348 2 0 cbr 1000 ------- 2 2.0 3.0 31 31
- 0.348 2 0 cbr 1000 ------- 2 2.0 3.0 31 31
r 0.349333 0 3 cbr 1000 ------- 2 2.0 3.0 28 28
r 0.352667 2 0 cbr 1000 ------- 2 2.0 3.0 30 30
+ 0.352667 0 3 cbr 1000 ------- 2 2.0 3.0 30 30
- 0.352667 0 3 cbr 1000 ------- 2 2.0 3.0 30 30
+ 0.356 2 0 cbr 1000 ------- 2 2.0 3.0 32 32
- 0.356 2 0 cbr 1000 ------- 2 2.0 3.0 32 32
r 0.357333 0 3 cbr 1000 ------- 2 2.0 3.0 29 29
r 0.360667 2 0 cbr 1000 ------- 2 2.0 3.0 31 31
+ 0.360667 0 3 cbr 1000 ------- 2 2.0 3.0 31 31
- 0.360667 0 3 cbr 1000 ------- 2 2.0 3.0 31 31
+ 0.364 2 0 cbr 1000 ------- 2 2.0 3.0 33 33
- 0.364 2 0 cbr 1000 ------- 2 2.0 3.0 33 33
r 0.365333 0 3 cbr 1000 ------- 2 2.0 3.0 30 30
r 0.368667 2 0 cbr 1000 ------- 2 2.0 3.0 32 32
+ 0.368667 0 3 cbr 1000 ------- 2 2.0 3.0 32 32
- 0.368667 0 3 cbr 1000 ------- 2 2.0 3.0 32 32
+ 0.372 2 0 cbr 1000 ------- 2 2.0 3.0 34 34
- 0.372 2 0 cbr 1000 ------- 2 2.0 3.0 34 34
r 0.373333 0 3 cbr 1000 ------- 2 2.0 3.0 31 31
r 0.376667 2 0 cbr 1000 ------- 2 2.0 3.0 33 33
+ 0.376667 0 3 cbr 1000 ------- 2 2.0 3.0 33 33
- 0.376667 0 3 cbr 1000 ------- 2 2.0 3.0 33 33
+ 0.38 2 0 cbr 1000 ------- 2 2.0 3.0 35 35
- 0.38 2 0 cbr 1000 ------- 2 2.0 3.0 35 35
r 0.381333 0 3 cbr 1000 ------- 2 2.0 3.0 32 32
r 0.384667 2 0 cbr 1000 ------- 2 2.0 3.0 34 34
+ 0.384667 0 3 cbr 1000 ------- 2 2.0 3.0 34 34
- 0.384667 0 3 cbr 1000 ------- 2 2.0 3.0 34 34
+ 0.388 2 0 cbr 1000 ------- 2 2.0 3.0 36 36
- 0.388 2 0 cbr 1000 ------- 2 2.0 3.0 36 36
r 0.389333 0 3 cbr 1000 ------- 2 2.0 3.0 33 33
r 0.392667 2 0 cbr 1000 ------- 2 2.0 3.0 35 35
+ 0.392667 0 3 cbr 1000 ------- 2 2.0 3.0 35 35
- 0.392667 0 3 cbr 1000 ------- 2 2.0 3.0 35 35
+ 0.396 2 0 cbr 1000 ------- 2 2.0 3.0 37 37
- 0.396 2 0 cbr 1000 ------- 2 2.0 3.0 37 37
r 0.397333 0 3 cbr 1000 ------- 2 2.0 3.0 34 34
r 0.400667 2 0 cbr 1000 ------- 2 2.0 3.0 36 36
+ 0.400667 0 3 cbr 1000 ------- 2 2.0 3.0 36 36
- 0.400667 0 3 cbr 1000 ------- 2 2.0 3.0 36 36
+ 0.404 2 0 cbr 1000 ------- 2 2.0 3.0 38 38
- 0.404 2 0 cbr 1000 ------- 2 2.0 3.0 38 38
r 0.405333 0 3 cbr 1000 ------- 2 2.0 3.0 35 35
r 0.408667 2 0 cbr 1000 ------- 2 2.0 3.0 37 37
+ 0.408667 0 3 cbr 1000 ------- 2 2.0 3.0 37 37
- 0.408667 0 3 cbr 1000 ------- 2 2.0 3.0 37 37
+ 0.412 2 0 cbr 1000 ------- 2 2.0 3.0 39 39
- 0.412 2 0 cbr 1000 ------- 2 2.0 3.0 39 39
r 0.413333 0 3 cbr 1000 ------- 2 2.0 3.0 36 36
r 0.416667 2 0 cbr 1000 ------- 2 2.0 3.0 38 38
+ 0.416667 0 3 cbr 1000 ------- 2 2.0 3.0 38 38
- 0.416667 0 3 cbr 1000 ------- 2 2.0 3.0 38 38
+ 0.42 2 0 cbr 1000 ------- 2 2.0 3.0 40 40
- 0.42 2 0 cbr 1000 ------- 2 2.0 3.0 40 40
r 0.421333 0 3 cbr 1000 ------- 2 2.0 3.0 37 37
r 0.424667 2 0 cbr 1000 ------- 2 2.0 3.0 39 39
+ 0.424667 0 3 cbr 1000 ------- 2 2.0 3.0 39 39
- 0.424667 0 3 cbr 1000 ------- 2 2.0 3.0 39 39
+ 0.428 2 0 cbr 1000 ------- 2 2.0 3.0 41 41
- 0.428 2 0 cbr 1000 ------- 2 2.0 3.0 41 41
r 0.429333 0 3 cbr 1000 ------- 2 2.0 3.0 38 38
r 0.432667 2 0 cbr 1000 ------- 2 2.0 3.0 40 40
+ 0.432667 0 3 cbr 1000 ------- 2 2.0 3.0 40 40
- 0.432667 0 3 cbr 1000 ------- 2 2.0 3.0 40 40
+ 0.436 2 0 cbr 1000 ------- 2 2.0 3.0 42 42
- 0.436 2 0 cbr 1000 ------- 2 2.0 3.0 42 42
r 0.437333 0 3 cbr 1000 ------- 2 2.0 3.0 39 39
r 0.440667 2 0 cbr 1000 ------- 2 2.0 3.0 41 41
+ 0.440667 0 3 cbr 1000 ------- 2 2.0 3.0 41 41
- 0.440667 0 3 cbr 1000 ------- 2 2.0 3.0 41 41
+ 0.444 2 0 cbr 1000 ------- 2 2.0 3.0 43 43
- 0.444 2 0 cbr 1000 ------- 2 2.0 3.0 43 43
r 0.445333 0 3 cbr 1000 ------- 2 2.0 3.0 40 40
r 0.448667 2 0 cbr 1000 ------- 2 2.0 3.0 42 42
+ 0.448667 0 3 cbr 1000 ------- 2 2.0 3.0 42 42
- 0.448667 0 3 cbr 1000 ------- 2 2.0 3.0 42 42
+ 0.452 2 0 cbr 1000 ------- 2 2.0 3.0 44 44
- 0.452 2 0 cbr 1000 ------- 2 2.0 3.0 44 44
r 0.453333 0 3 cbr 1000 ------- 2 2.0 3.0 41 41
r 0.456667 2 0 cbr 1000 ------- 2 2.0 3.0 43 43
+ 0.456667 0 3 cbr 1000 ------- 2 2.0 3.0 43 43
- 0.456667 0 3 cbr 1000 ------- 2 2.0 3.0 43 43
+ 0.46 2 0 cbr 1000 ------- 2 2.0 3.0 45 45
- 0.46 2 0 cbr 1000 ------- 2 2.0 3.0 45 45
r 0.461333 0 3 cbr 1000 ------- 2 2.0 3.0 42 42
r 0.464667 2 0 cbr 1000 ------- 2 2.0 3.0 44 44
+ 0.464667 0 3 cbr 1000 ------- 2 2.0 3.0 44 44
- 0.464667 0 3 cbr 1000 ------- 2 2.0 3.0 44 44
+ 0.468 2 0 cbr 1000 ------- 2 2.0 3.0 46 46
- 0.468 2 0 cbr 1000 ------- 2 2.0 3.0 46 46
r 0.469333 0 3 cbr 1000 ------- 2 2.0 3.0 43 43
r 0.472667 2 0 cbr 1000 ------- 2 2.0 3.0 45 45
+ 0.472667 0 3 cbr 1000 ------- 2 2.0 3.0 45 45
- 0.472667 0 3 cbr 1000 ------- 2 2.0 3.0 45 45
+ 0.476 2 0 cbr 1000 ------- 2 2.0 3.0 47 47
- 0.476 2 0 cbr 1000 ------- 2 2.0 3.0 47 47
r 0.477333 0 3 cbr 1000 ------- 2 2.0 3.0 44 44
r 0.480667 2 0 cbr 1000 ------- 2 2.0 3.0 46 46
+ 0.480667 0 3 cbr 1000 ------- 2 2.0 3.0 46 46
- 0.480667 0 3 cbr 1000 ------- 2 2.0 3.0 46 46
+ 0.484 2 0 cbr 1000 ------- 2 2.0 3.0 48 48
- 0.484 2 0 cbr 1000 ------- 2 2.0 3.0 48 48
r 0.485333 0 3 cbr 1000 ------- 2 2.0 3.0 45 45
r 0.488667 2 0 cbr 1000 ------- 2 2.0 3.0 47 47
+ 0.488667 0 3 cbr 1000 ------- 2 2.0 3.0 47 47
- 0.488667 0 3 cbr 1000 ------- 2 2.0 3.0 47 47
+ 0.492 2 0 cbr 1000 ------- 2 2.0 3.0 49 49
- 0.492 2 0 cbr 1000 ------- 2 2.0 3.0 49 49
r 0.493333 0 3 cbr 1000 ------- 2 2.0 3.0 46 46
r 0.496667 2 0 cbr 1000 ------- 2 2.0 3.0 48 48
+ 0.496667 0 3 cbr 1000 ------- 2 2.0 3.0 48 48
- 0.496667 0 3 cbr 1000 ------- 2 2.0 3.0 48 48
+ 0.5 2 0 cbr 1000 ------- 2 2.0 3.0 50 50
- 0.5 2 0 cbr 1000 ------- 2 2.0 3.0 50 50
r 0.501333 0 3 cbr 1000 ------- 2 2.0 3.0 47 47
r 0.504667 2 0 cbr 1000 ------- 2 2.0 3.0 49 49
+ 0.504667 0 3 cbr 1000 ------- 2 2.0 3.0 49 49
- 0.504667 0 3 cbr 1000 ------- 2 2.0 3.0 49 49
+ 0.508 2 0 cbr 1000 ------- 2 2.0 3.0 51 51
- 0.508 2 0 cbr 1000 ------- 2 2.0 3.0 51 51
r 0.509333 0 3 cbr 1000 ------- 2 2.0 3.0 48 48
r 0.512667 2 0 cbr 1000 ------- 2 2.0 3.0 50 50
+ 0.512667 0 3 cbr 1000 ------- 2 2.0 3.0 50 50
- 0.512667 0 3 cbr 1000 ------- 2 2.0 3.0 50 50
+ 0.516 2 0 cbr 1000 ------- 2 2.0 3.0 52 52
- 0.516 2 0 cbr 1000 ------- 2 2.0 3.0 52 52
r 0.517333 0 3 cbr 1000 ------- 2 2.0 3.0 49 49
r 0.520667 2 0 cbr 1000 ------- 2 2.0 3.0 51 51
+ 0.520667 0 3 cbr 1000 ------- 2 2.0 3.0 51 51
- 0.520667 0 3 cbr 1000 ------- 2 2.0 3.0 51 51
+ 0.524 2 0 cbr 1000 ------- 2 2.0 3.0 53 53
- 0.524 2 0 cbr 1000 ------- 2 2.0 3.0 53 53
r 0.525333 0 3 cbr 1000 ------- 2 2.0 3.0 50 50
r 0.528667 2 0 cbr 1000 ------- 2 2.0 3.0 52 52
+ 0.528667 0 3 cbr 1000 ------- 2 2.0 3.0 52 52
- 0.528667 0 3 cbr 1000 ------- 2 2.0 3.0 52 52
+ 0.532 2 0 cbr 1000 ------- 2 2.0 3.0 54 54
- 0.532 2 0 cbr 1000 ------- 2 2.0 3.0 54 54
r 0.533333 0 3 cbr 1000 ------- 2 2.0 3.0 51 51
r 0.536667 2 0 cbr 1000 ------- 2 2.0 3.0 53 53
+ 0.536667 0 3 cbr 1000 ------- 2 2.0 3.0 53 53
- 0.536667 0 3 cbr 1000 ------- 2 2.0 3.0 53 53
+ 0.54 2 0 cbr 1000 ------- 2 2.0 3.0 55 55
- 0.54 2 0 cbr 1000 ------- 2 2.0 3.0 55 55
r 0.541333 0 3 cbr 1000 ------- 2 2.0 3.0 52 52
r 0.544667 2 0 cbr 1000 ------- 2 2.0 3.0 54 54
+ 0.544667 0 3 cbr 1000 ------- 2 2.0 3.0 54 54
- 0.544667 0 3 cbr 1000 ------- 2 2.0 3.0 54 54
+ 0.548 2 0 cbr 1000 ------- 2 2.0 3.0 56 56
- 0.548 2 0 cbr 1000 ------- 2 2.0 3.0 56 56
r 0.549333 0 3 cbr 1000 ------- 2 2.0 3.0 53 53
r 0.552667 2 0 cbr 1000 ------- 2 2.0 3.0 55 55
+ 0.552667 0 3 cbr 1000 ------- 2 2.0 3.0 55 55
- 0.552667 0 3 cbr 1000 ------- 2 2.0 3.0 55 55
+ 0.556 2 0 cbr 1000 ------- 2 2.0 3.0 57 57
- 0.556 2 0 cbr 1000 ------- 2 2.0 3.0 57 57
r 0.557333 0 3 cbr 1000 ------- 2 2.0 3.0 54 54
r 0.560667 2 0 cbr 1000 ------- 2 2.0 3.0 56 56
+ 0.560667 0 3 cbr 1000 ------- 2 2.0 3.0 56 56
- 0.560667 0 3 cbr 1000 ------- 2 2.0 3.0 56 56
+ 0.564 2 0 cbr 1000 ------- 2 2.0 3.0 58 58
- 0.564 2 0 cbr 1000 ------- 2 2.0 3.0 58 58
r 0.565333 0 3 cbr 1000 ------- 2 2.0 3.0 55 55
r 0.568667 2 0 cbr 1000 ------- 2 2.0 3.0 57 57
+ 0.568667 0 3 cbr 1000 ------- 2 2.0 3.0 57 57
- 0.568667 0 3 cbr 1000 ------- 2 2.0 3.0 57 57
+ 0.572 2 0 cbr 1000 ------- 2 2.0 3.0 59 59
- 0.572 2 0 cbr 1000 ------- 2 2.0 3.0 59 59
r 0.573333 0 3 cbr 1000 ------- 2 2.0 3.0 56 56
r 0.576667 2 0 cbr 1000 ------- 2 2.0 3.0 58 58
+ 0.576667 0 3 cbr 1000 ------- 2 2.0 3.0 58 58
- 0.576667 0 3 cbr 1000 ------- 2 2.0 3.0 58 58
+ 0.58 2 0 cbr 1000 ------- 2 2.0 3.0 60 60
- 0.58 2 0 cbr 1000 ------- 2 2.0 3.0 60 60
r 0.581333 0 3 cbr 1000 ------- 2 2.0 3.0 57 57
r 0.584667 2 0 cbr 1000 ------- 2 2.0 3.0 59 59
+ 0.584667 0 3 cbr 1000 ------- 2 2.0 3.0 59 59
- 0.584667 0 3 cbr 1000 ------- 2 2.0 3.0 59 59
+ 0.588 2 0 cbr 1000 ------- 2 2.0 3.0 61 61
- 0.588 2 0 cbr 1000 ------- 2 2.0 3.0 61 61
r 0.589333 0 3 cbr 1000 ------- 2 2.0 3.0 58 58
r 0.592667 2 0 cbr 1000 ------- 2 2.0 3.0 60 60
+ 0.592667 0 3 cbr 1000 ------- 2 2.0 3.0 60 60
- 0.592667 0 3 cbr 1000 ------- 2 2.0 3.0 60 60
+ 0.596 2 0 cbr 1000 ------- 2 2.0 3.0 62 62
- 0.596 2 0 cbr 1000 ------- 2 2.0 3.0 62 62
r 0.597333 0 3 cbr 1000 ------- 2 2.0 3.0 59 59
r 0.600667 2 0 cbr 1000 ------- 2 2.0 3.0 61 61
+ 0.600667 0 3 cbr 1000 ------- 2 2.0 3.0 61 61
- 0.600667 0 3 cbr 1000 ------- 2 2.0 3.0 61 61
+ 0.604 2 0 cbr 1000 ------- 2 2.0 3.0 63 63
- 0.604 2 0 cbr 1000 ------- 2 2.0 3.0 63 63
r 0.605333 0 3 cbr 1000 ------- 2 2.0 3.0 60 60
r 0.608667 2 0 cbr 1000 ------- 2 2.0 3.0 62 62
+ 0.608667 0 3 cbr 1000 ------- 2 2.0 3.0 62 62
- 0.608667 0 3 cbr 1000 ------- 2 2.0 3.0 62 62
+ 0.612 2 0 cbr 1000 ------- 2 2.0 3.0 64 64
- 0.612 2 0 cbr 1000 ------- 2 2.0 3.0 64 64
r 0.613333 0 3 cbr 1000 ------- 2 2.0 3.0 61 61
r 0.616667 2 0 cbr 1000 ------- 2 2.0 3.0 63 63
+ 0.616667 0 3 cbr 1000 ------- 2 2.0 3.0 63 63
- 0.616667 0 3 cbr 1000 ------- 2 2.0 3.0 63 63
+ 0.62 2 0 cbr 1000 ------- 2 2.0 3.0 65 65
- 0.62 2 0 cbr 1000 ------- 2 2.0 3.0 65 65
r 0.621333 0 3 cbr 1000 ------- 2 2.0 3.0 62 62
r 0.624667 2 0 cbr 1000 ------- 2 2.0 3.0 64 64
+ 0.624667 0 3 cbr 1000 ------- 2 2.0 3.0 64 64
- 0.624667 0 3 cbr 1000 ------- 2 2.0 3.0 64 64
+ 0.628 2 0 cbr 1000 ------- 2 2.0 3.0 66 66
- 0.628 2 0 cbr 1000 ------- 2 2.0 3.0 66 66
r 0.629333 0 3 cbr 1000 ------- 2 2.0 3.0 63 63
r 0.632667 2 0 cbr 1000 ------- 2 2.0 3.0 65 65
+ 0.632667 0 3 cbr 1000 ------- 2 2.0 3.0 65 65
- 0.632667 0 3 cbr 1000 ------- 2 2.0 3.0 65 65
+ 0.636 2 0 cbr 1000 ------- 2 2.0 3.0 67 67
- 0.636 2 0 cbr 1000 ------- 2 2.0 3.0 67 67
r 0.637333 0 3 cbr 1000 ------- 2 2.0 3.0 64 64
r 0.640667 2 0 cbr 1000 ------- 2 2.0 3.0 66 66
+ 0.640667 0 3 cbr 1000 ------- 2 2.0 3.0 66 66
- 0.640667 0 3 cbr 1000 ------- 2 2.0 3.0 66 66
+ 0.644 2 0 cbr 1000 ------- 2 2.0 3.0 68 68
- 0.644 2 0 cbr 1000 ------- 2 2.0 3.0 68 68
r 0.645333 0 3 cbr 1000 ------- 2 2.0 3.0 65 65
r 0.648667 2 0 cbr 1000 ------- 2 2.0 3.0 67 67
+ 0.648667 0 3 cbr 1000 ------- 2 2.0 3.0 67 67
- 0.648667 0 3 cbr 1000 ------- 2 2.0 3.0 67 67
+ 0.652 2 0 cbr 1000 ------- 2 2.0 3.0 69 69
- 0.652 2 0 cbr 1000 ------- 2 2.0 3.0 69 69
r 0.653333 0 3 cbr 1000 ------- 2 2.0 3.0 66 66
r 0.656667 2 0 cbr 1000 ------- 2 2.0 3.0 68 68
+ 0.656667 0 3 cbr 1000 ------- 2 2.0 3.0 68 68
- 0.656667 0 3 cbr 1000 ------- 2 2.0 3.0 68 68
+ 0.66 2 0 cbr 1000 ------- 2 2.0 3.0 70 70
- 0.66 2 0 cbr 1000 ------- 2 2.0 3.0 70 70
r 0.661333 0 3 cbr 1000 ------- 2 2.0 3.0 67 67
r 0.664667 2 0 cbr 1000 ------- 2 2.0 3.0 69 69
+ 0.664667 0 3 cbr 1000 ------- 2 2.0 3.0 69 69
- 0.664667 0 3 cbr 1000 ------- 2 2.0 3.0 69 69
+ 0.668 2 0 cbr 1000 ------- 2 2.0 3.0 71 71
- 0.668 2 0 cbr 1000 ------- 2 2.0 3.0 71 71
r 0.669333 0 3 cbr 1000 ------- 2 2.0 3.0 68 68
r 0.672667 2 0 cbr 1000 ------- 2 2.0 3.0 70 70
+ 0.672667 0 3 cbr 1000 ------- 2 2.0 3.0 70 70
- 0.672667 0 3 cbr 1000 ------- 2 2.0 3.0 70 70
+ 0.676 2 0 cbr 1000 ------- 2 2.0 3.0 72 72
- 0.676 2 0 cbr 1000 ------- 2 2.0 3.0 72 72
r 0.677333 0 3 cbr 1000 ------- 2 2.0 3.0 69 69
r 0.680667 2 0 cbr 1000 ------- 2 2.0 3.0 71 71
+ 0.680667 0 3 cbr 1000 ------- 2 2.0 3.0 71 71
- 0.680667 0 3 cbr 1000 ------- 2 2.0 3.0 71 71
+ 0.684 2 0 cbr 1000 ------- 2 2.0 3.0 73 73
- 0.684 2 0 cbr 1000 ------- 2 2.0 3.0 73 73
r 0.685333 0 3 cbr 1000 ------- 2 2.0 3.0 70 70
r 0.688667 2 0 cbr 1000 ------- 2 2.0 3.0 72 72
+ 0.688667 0 3 cbr 1000 ------- 2 2.0 3.0 72 72
- 0.688667 0 3 cbr 1000 ------- 2 2.0 3.0 72 72
+ 0.692 2 0 cbr 1000 ------- 2 2.0 3.0 74 74
- 0.692 2 0 cbr 1000 ------- 2 2.0 3.0 74 74
r 0.693333 0 3 cbr 1000 ------- 2 2.0 3.0 71 71
r 0.696667 2 0 cbr 1000 ------- 2 2.0 3.0 73 73
+ 0.696667 0 3 cbr 1000 ------- 2 2.0 3.0 73 73
- 0.696667 0 3 cbr 1000 ------- 2 2.0 3.0 73 73
+ 0.7 2 0 cbr 1000 ------- 2 2.0 3.0 75 75
- 0.7 2 0 cbr 1000 ------- 2 2.0 3.0 75 75
r 0.701333 0 3 cbr 1000 ------- 2 2.0 3.0 72 72
r 0.704667 2 0 cbr 1000 ------- 2 2.0 3.0 74 74
+ 0.704667 0 3 cbr 1000 ------- 2 2.0 3.0 74 74
- 0.704667 0 3 cbr 1000 ------- 2 2.0 3.0 74 74
+ 0.708 2 0 cbr 1000 ------- 2 2.0 3.0 76 76
- 0.708 2 0 cbr 1000 ------- 2 2.0 3.0 76 76
r 0.709333 0 3 cbr 1000 ------- 2 2.0 3.0 73 73
r 0.712667 2 0 cbr 1000 ------- 2 2.0 3.0 75 75
+ 0.712667 0 3 cbr 1000 ------- 2 2.0 3.0 75 75
- 0.712667 0 3 cbr 1000 ------- 2 2.0 3.0 75 75
+ 0.716 2 0 cbr 1000 ------- 2 2.0 3.0 77 77
- 0.716 2 0 cbr 1000 ------- 2 2.0 3.0 77 77
r 0.717333 0 3 cbr 1000 ------- 2 2.0 3.0 74 74
r 0.720667 2 0 cbr 1000 ------- 2 2.0 3.0 76 76
+ 0.720667 0 3 cbr 1000 ------- 2 2.0 3.0 76 76
- 0.720667 0 3 cbr 1000 ------- 2 2.0 3.0 76 76
+ 0.724 2 0 cbr 1000 ------- 2 2.0 3.0 78 78
- 0.724 2 0 cbr 1000 ------- 2 2.0 3.0 78 78
r 0.725333 0 3 cbr 1000 ------- 2 2.0 3.0 75 75
r 0.728667 2 0 cbr 1000 ------- 2 2.0 3.0 77 77
+ 0.728667 0 3 cbr 1000 ------- 2 2.0 3.0 77 77
- 0.728667 0 3 cbr 1000 ------- 2 2.0 3.0 77 77
+ 0.732 2 0 cbr 1000 ------- 2 2.0 3.0 79 79
- 0.732 2 0 cbr 1000 ------- 2 2.0 3.0 79 79
r 0.733333 0 3 cbr 1000 ------- 2 2.0 3.0 76 76
r 0.736667 2 0 cbr 1000 ------- 2 2.0 3.0 78 78
+ 0.736667 0 3 cbr 1000 ------- 2 2.0 3.0 78 78
- 0.736667 0 3 cbr 1000 ------- 2 2.0 3.0 78 78
+ 0.74 2 0 cbr 1000 ------- 2 2.0 3.0 80 80
- 0.74 2 0 cbr 1000 ------- 2 2.0 3.0 80 80
r 0.741333 0 3 cbr 1000 ------- 2 2.0 3.0 77 77
r 0.744667 2 0 cbr 1000 ------- 2 2.0 3.0 79 79
+ 0.744667 0 3 cbr 1000 ------- 2 2.0 3.0 79 79
- 0.744667 0 3 cbr 1000 ------- 2 2.0 3.0 79 79
+ 0.748 2 0 cbr 1000 ------- 2 2.0 3.0 81 81
- 0.748 2 0 cbr 1000 ------- 2 2.0 3.0 81 81
r 0.749333 0 3 cbr 1000 ------- 2 2.0 3.0 78 78
r 0.752667 2 0 cbr 1000 ------- 2 2.0 3.0 80 80
+ 0.752667 0 3 cbr 1000 ------- 2 2.0 3.0 80 80
- 0.752667 0 3 cbr 1000 ------- 2 2.0 3.0 80 80
+ 0.756 2 0 cbr 1000 ------- 2 2.0 3.0 82 82
- 0.756 2 0 cbr 1000 ------- 2 2.0 3.0 82 82
r 0.757333 0 3 cbr 1000 ------- 2 2.0 3.0 79 79
r 0.760667 2 0 cbr 1000 ------- 2 2.0 3.0 81 81
+ 0.760667 0 3 cbr 1000 ------- 2 2.0 3.0 81 81
- 0.760667 0 3 cbr 1000 ------- 2 2.0 3.0 81 81
+ 0.764 2 0 cbr 1000 ------- 2 2.0 3.0 83 83
- 0.764 2 0 cbr 1000 ------- 2 2.0 3.0 83 83
r 0.765333 0 3 cbr 1000 ------- 2 2.0 3.0 80 80
r 0.768667 2 0 cbr 1000 ------- 2 2.0 3.0 82 82
+ 0.768667 0 3 cbr 1000 ------- 2 2.0 3.0 82 82
- 0.768667 0 3 cbr 1000 ------- 2 2.0 3.0 82 82
+ 0.772 2 0 cbr 1000 ------- 2 2.0 3.0 84 84
- 0.772 2 0 cbr 1000 ------- 2 2.0 3.0 84 84
r 0.773333 0 3 cbr 1000 ------- 2 2.0 3.0 81 81
r 0.776667 2 0 cbr 1000 ------- 2 2.0 3.0 83 83
+ 0.776667 0 3 cbr 1000 ------- 2 2.0 3.0 83 83
- 0.776667 0 3 cbr 1000 ------- 2 2.0 3.0 83 83
+ 0.78 2 0 cbr 1000 ------- 2 2.0 3.0 85 85
- 0.78 2 0 cbr 1000 ------- 2 2.0 3.0 85 85
r 0.781333 0 3 cbr 1000 ------- 2 2.0 3.0 82 82
r 0.784667 2 0 cbr 1000 ------- 2 2.0 3.0 84 84
+ 0.784667 0 3 cbr 1000 ------- 2 2.0 3.0 84 84
- 0.784667 0 3 cbr 1000 ------- 2 2.0 3.0 84 84
+ 0.788 2 0 cbr 1000 ------- 2 2.0 3.0 86 86
- 0.788 2 0 cbr 1000 ------- 2 2.0 3.0 86 86
r 0.789333 0 3 cbr 1000 ------- 2 2.0 3.0 83 83
r 0.792667 2 0 cbr 1000 ------- 2 2.0 3.0 85 85
+ 0.792667 0 3 cbr 1000 ------- 2 2.0 3.0 85 85
- 0.792667 0 3 cbr 1000 ------- 2 2.0 3.0 85 85
+ 0.796 2 0 cbr 1000 ------- 2 2.0 3.0 87 87
- 0.796 2 0 cbr 1000 ------- 2 2.0 3.0 87 87
r 0.797333 0 3 cbr 1000 ------- 2 2.0 3.0 84 84
r 0.800667 2 0 cbr 1000 ------- 2 2.0 3.0 86 86
+ 0.800667 0 3 cbr 1000 ------- 2 2.0 3.0 86 86
- 0.800667 0 3 cbr 1000 ------- 2 2.0 3.0 86 86
+ 0.804 2 0 cbr 1000 ------- 2 2.0 3.0 88 88
- 0.804 2 0 cbr 1000 ------- 2 2.0 3.0 88 88
r 0.805333 0 3 cbr 1000 ------- 2 2.0 3.0 85 85
r 0.808667 2 0 cbr 1000 ------- 2 2.0 3.0 87 87
+ 0.808667 0 3 cbr 1000 ------- 2 2.0 3.0 87 87
- 0.808667 0 3 cbr 1000 ------- 2 2.0 3.0 87 87
+ 0.812 2 0 cbr 1000 ------- 2 2.0 3.0 89 89
- 0.812 2 0 cbr 1000 ------- 2 2.0 3.0 89 89
r 0.813333 0 3 cbr 1000 ------- 2 2.0 3.0 86 86
r 0.816667 2 0 cbr 1000 ------- 2 2.0 3.0 88 88
+ 0.816667 0 3 cbr 1000 ------- 2 2.0 3.0 88 88
- 0.816667 0 3 cbr 1000 ------- 2 2.0 3.0 88 88
+ 0.82 2 0 cbr 1000 ------- 2 2.0 3.0 90 90
- 0.82 2 0 cbr 1000 ------- 2 2.0 3.0 90 90
r 0.821333 0 3 cbr 1000 ------- 2 2.0 3.0 87 87
r 0.824667 2 0 cbr 1000 ------- 2 2.0 3.0 89 89
+ 0.824667 0 3 cbr 1000 ------- 2 2.0 3.0 89 89
- 0.824667 0 3 cbr 1000 ------- 2 2.0 3.0 89 89
+ 0.828 2 0 cbr 1000 ------- 2 2.0 3.0 91 91
- 0.828 2 0 cbr 1000 ------- 2 2.0 3.0 91 91
r 0.829333 0 3 cbr 1000 ------- 2 2.0 3.0 88 88
r 0.832667 2 0 cbr 1000 ------- 2 2.0 3.0 90 90
+ 0.832667 0 3 cbr 1000 ------- 2 2.0 3.0 90 90
- 0.832667 0 3 cbr 1000 ------- 2 2.0 3.0 90 90
+ 0.836 2 0 cbr 1000 ------- 2 2.0 3.0 92 92
- 0.836 2 0 cbr 1000 ------- 2 2.0 3.0 92 92
r 0.837333 0 3 cbr 1000 ------- 2 2.0 3.0 89 89
r 0.840667 2 0 cbr 1000 ------- 2 2.0 3.0 91 91
+ 0.840667 0 3 cbr 1000 ------- 2 2.0 3.0 91 91
- 0.840667 0 3 cbr 1000 ------- 2 2.0 3.0 91 91
+ 0.844 2 0 cbr 1000 ------- 2 2.0 3.0 93 93
- 0.844 2 0 cbr 1000 ------- 2 2.0 3.0 93 93
r 0.845333 0 3 cbr 1000 ------- 2 2.0 3.0 90 90
r 0.848667 2 0 cbr 1000 ------- 2 2.0 3.0 92 92
+ 0.848667 0 3 cbr 1000 ------- 2 2.0 3.0 92 92
- 0.848667 0 3 cbr 1000 ------- 2 2.0 3.0 92 92
+ 0.852 2 0 cbr 1000 ------- 2 2.0 3.0 94 94
- 0.852 2 0 cbr 1000 ------- 2 2.0 3.0 94 94
r 0.853333 0 3 cbr 1000 ------- 2 2.0 3.0 91 91
r 0.856667 2 0 cbr 1000 ------- 2 2.0 3.0 93 93
+ 0.856667 0 3 cbr 1000 ------- 2 2.0 3.0 93 93
- 0.856667 0 3 cbr 1000 ------- 2 2.0 3.0 93 93
+ 0.86 2 0 cbr 1000 ------- 2 2.0 3.0 95 95
- 0.86 2 0 cbr 1000 ------- 2 2.0 3.0 95 95
r 0.861333 0 3 cbr 1000 ------- 2 2.0 3.0 92 92
r 0.864667 2 0 cbr 1000 ------- 2 2.0 3.0 94 94
+ 0.864667 0 3 cbr 1000 ------- 2 2.0 3.0 94 94
- 0.864667 0 3 cbr 1000 ------- 2 2.0 3.0 94 94
+ 0.868 2 0 cbr 1000 ------- 2 2.0 3.0 96 96
- 0.868 2 0 cbr 1000 ------- 2 2.0 3.0 96 96
r 0.869333 0 3 cbr 1000 ------- 2 2.0 3.0 93 93
r 0.872667 2 0 cbr 1000 ------- 2 2.0 3.0 95 95
+ 0.872667 0 3 cbr 1000 ------- 2 2.0 3.0 95 95
- 0.872667 0 3 cbr 1000 ------- 2 2.0 3.0 95 95
+ 0.876 2 0 cbr 1000 ------- 2 2.0 3.0 97 97
- 0.876 2 0 cbr 1000 ------- 2 2.0 3.0 97 97
r 0.877333 0 3 cbr 1000 ------- 2 2.0 3.0 94 94
r 0.880667 2 0 cbr 1000 ------- 2 2.0 3.0 96 96
+ 0.880667 0 3 cbr 1000 ------- 2 2.0 3.0 96 96
- 0.880667 0 3 cbr 1000 ------- 2 2.0 3.0 96 96
+ 0.884 2 0 cbr 1000 ------- 2 2.0 3.0 98 98
- 0.884 2 0 cbr 1000 ------- 2 2.0 3.0 98 98
r 0.885333 0 3 cbr 1000 ------- 2 2.0 3.0 95 95
r 0.888667 2 0 cbr 1000 ------- 2 2.0 3.0 97 97
+ 0.888667 0 3 cbr 1000 ------- 2 2.0 3.0 97 97
- 0.888667 0 3 cbr 1000 ------- 2 2.0 3.0 97 97
+ 0.892 2 0 cbr 1000 ------- 2 2.0 3.0 99 99
- 0.892 2 0 cbr 1000 ------- 2 2.0 3.0 99 99
r 0.893333 0 3 cbr 1000 ------- 2 2.0 3.0 96 96
r 0.896667 2 0 cbr 1000 ------- 2 2.0 3.0 98 98
+ 0.896667 0 3 cbr 1000 ------- 2 2.0 3.0 98 98
- 0.896667 0 3 cbr 1000 ------- 2 2.0 3.0 98 98
+ 0.9 2 0 cbr 1000 ------- 2 2.0 3.0 100 100
- 0.9 2 0 cbr 1000 ------- 2 2.0 3.0 100 100
r 0.901333 0 3 cbr 1000 ------- 2 2.0 3.0 97 97
r 0.904667 2 0 cbr 1000 ------- 2 2.0 3.0 99 99
+ 0.904667 0 3 cbr 1000 ------- 2 2.0 3.0 99 99
- 0.904667 0 3 cbr 1000 ------- 2 2.0 3.0 99 99
+ 0.908 2 0 cbr 1000 ------- 2 2.0 3.0 101 101
- 0.908 2 0 cbr 1000 ------- 2 2.0 3.0 101 101
r 0.909333 0 3 cbr 1000 ------- 2 2.0 3.0 98 98
r 0.912667 2 0 cbr 1000 ------- 2 2.0 3.0 100 100
+ 0.912667 0 3 cbr 1000 ------- 2 2.0 3.0 100 100
- 0.912667 0 3 cbr 1000 ------- 2 2.0 3.0 100 100
+ 0.916 2 0 cbr 1000 ------- 2 2.0 3.0 102 102
- 0.916 2 0 cbr 1000 ------- 2 2.0 3.0 102 102
r 0.917333 0 3 cbr 1000 ------- 2 2.0 3.0 99 99
r 0.920667 2 0 cbr 1000 ------- 2 2.0 3.0 101 101
+ 0.920667 0 3 cbr 1000 ------- 2 2.0 3.0 101 101
- 0.920667 0 3 cbr 1000 ------- 2 2.0 3.0 101 101
+ 0.924 2 0 cbr 1000 ------- 2 2.0 3.0 103 103
- 0.924 2 0 cbr 1000 ------- 2 2.0 3.0 103 103
r 0.925333 0 3 cbr 1000 ------- 2 2.0 3.0 100 100
r 0.928667 2 0 cbr 1000 ------- 2 2.0 3.0 102 102
+ 0.928667 0 3 cbr 1000 ------- 2 2.0 3.0 102 102
- 0.928667 0 3 cbr 1000 ------- 2 2.0 3.0 102 102
+ 0.932 2 0 cbr 1000 ------- 2 2.0 3.0 104 104
- 0.932 2 0 cbr 1000 ------- 2 2.0 3.0 104 104
r 0.933333 0 3 cbr 1000 ------- 2 2.0 3.0 101 101
r 0.936667 2 0 cbr 1000 ------- 2 2.0 3.0 103 103
+ 0.936667 0 3 cbr 1000 ------- 2 2.0 3.0 103 103
- 0.936667 0 3 cbr 1000 ------- 2 2.0 3.0 103 103
+ 0.94 2 0 cbr 1000 ------- 2 2.0 3.0 105 105
- 0.94 2 0 cbr 1000 ------- 2 2.0 3.0 105 105
r 0.941333 0 3 cbr 1000 ------- 2 2.0 3.0 102 102
r 0.944667 2 0 cbr 1000 ------- 2 2.0 3.0 104 104
+ 0.944667 0 3 cbr 1000 ------- 2 2.0 3.0 104 104
- 0.944667 0 3 cbr 1000 ------- 2 2.0 3.0 104 104
+ 0.948 2 0 cbr 1000 ------- 2 2.0 3.0 106 106
- 0.948 2 0 cbr 1000 ------- 2 2.0 3.0 106 106
r 0.949333 0 3 cbr 1000 ------- 2 2.0 3.0 103 103
r 0.952667 2 0 cbr 1000 ------- 2 2.0 3.0 105 105
+ 0.952667 0 3 cbr 1000 ------- 2 2.0 3.0 105 105
- 0.952667 0 3 cbr 1000 ------- 2 2.0 3.0 105 105
+ 0.956 2 0 cbr 1000 ------- 2 2.0 3.0 107 107
- 0.956 2 0 cbr 1000 ------- 2 2.0 3.0 107 107
r 0.957333 0 3 cbr 1000 ------- 2 2.0 3.0 104 104
r 0.960667 2 0 cbr 1000 ------- 2 2.0 3.0 106 106